 Gaussian 16, Revision B.01,
 Gaussian 16:  EM64L-G16RevB.01 20-Dec-2017

 ---------------------------
 # B3LYP/6-31G(d,p) OPT FREQ
 ---------------------------

 -----
 1poly
 -----
 Symbolic Z-matrix:
 Charge =  0 Multiplicity = 1

 SCF Done:  E(RB3LYP) =  -78.5932931908     A.U. after    9 cycles
 SCF Done:  E(RB3LYP) =  -78.5937551967     A.U. after    8 cycles
 SCF Done:  E(RB3LYP) =  -78.5938079616     A.U. after    7 cycles
 Optimization completed.
    -- Stationary point found.
 Normal termination of Gaussian 16 at Fri Oct 27 15:09:46 2023.

 ----------------------------------------------------------------------
 #N Geom=AllCheck Guess=TCheck SCRF=Check GenChk RB3LYP/6-31G(d,p) Freq
 ----------------------------------------------------------------------

 Structure from the checkpoint file:  "./chk/1.chk"
 -----
 1poly
 -----
 Charge =  0 Multiplicity = 1

                         Standard orientation:
 ---------------------------------------------------------------------
 Center     Atomic      Atomic             Coordinates (Angstroms)
 Number     Number       Type             X           Y           Z
 ---------------------------------------------------------------------
      1          6           0       -0.665058   -0.000000   -0.000009
      2          6           0        0.665058    0.000000   -0.000008
      3          1           0       -1.238017   -0.923237    0.000027
      4          1           0        1.238019    0.923237    0.000025
      5          1           0        1.238018   -0.923236    0.000025
      6          1           0       -1.238019    0.923238    0.000027
 ---------------------------------------------------------------------

 SCF Done:  E(RB3LYP) =  -78.5938079616     A.U. after    1 cycles

 The electronic state is 1-A.
 Alpha  occ. eigenvalues --  -10.18438 -10.18348  -0.75519  -0.57657  -0.46399
 Alpha  occ. eigenvalues --   -0.41582  -0.35182  -0.26746
 Alpha virt. eigenvalues --    0.01741   0.12240   0.14057   0.15815   0.24449
 Alpha virt. eigenvalues --    0.33136   0.47288   0.54826   0.56349   0.63743
 Alpha virt. eigenvalues --    0.65374   0.69917   0.83104   0.84458   0.91325

 Mulliken charges:
               1
     1  C   -0.202422
     2  C   -0.202422
     3  H    0.101211
     4  H    0.101211
     5  H    0.101211
     6  H    0.101211
 Sum of Mulliken charges =   0.00000

 Dipole moment (field-independent basis, Debye):
    X=              0.0000    Y=             -0.0000    Z=              0.0001  Tot=              0.0001
 Quadrupole moment (field-independent basis, Debye-Ang):
   XX=            -12.0266   YY=            -12.1401   ZZ=            -14.9818
   XY=              0.0000   XZ=             -0.0000   YZ=             -0.0000

  Exact polarizability:  31.070  -0.000  20.691   0.000   0.000   8.898
 Approx polarizability:  47.449  -0.000  25.770   0.000   0.000  11.743

                      1                      2                      3
                      A                      A                      A
 Frequencies --    831.0936               960.9812               976.6155
 Red. masses --      1.0427                 1.5201                 1.1607
 Frc consts  --      0.4243                 0.8271                 0.6523
 IR Inten    --      0.6588                 0.0000                79.2303

                      4                      5                      6
                      A                      A                      A
 Frequencies --   1069.1899              1241.3759              1388.4899
 Red. masses --      1.0078                 1.5260                 1.2137
 Frc consts  --      0.6788                 1.3855                 1.3786
 IR Inten    --      0.0000                 0.0000                 0.0000

                      7                      8                      9
                      A                      A                      A
 Frequencies --   1483.0312              1715.2407              3145.6089
 Red. masses --      1.1120                 3.1906                 1.0477
 Frc consts  --      1.4410                 5.5306                 6.1080
 IR Inten    --      5.5695                 0.0000                17.0322

                     10                     11                     12
                      A                      A                      A
 Frequencies --   3161.3504              3221.3284              3247.2378
 Red. masses --      1.0747                 1.1146                 1.1177
 Frc consts  --      6.3285                 6.8145                 6.9437
 IR Inten    --      0.0000                 0.0000                30.8637

 - Thermochemistry -
 -------------------
 Temperature   298.150 Kelvin.  Pressure   1.00000 Atm.
 Atom     1 has atomic number  6 and mass  12.00000

 Molecular mass:    28.03130 amu.
 Principal axes and moments of inertia in atomic units:
                           1         2         3
     Eigenvalues --    12.27070  59.97237  72.24307
           X            1.00000  -0.00000  -0.00000
           Y            0.00000   1.00000  -0.00000
           Z            0.00000   0.00000   1.00000
 This molecule is an asymmetric top.
 Rotational symmetry number  1.
 Rotational temperatures (Kelvin)      7.05860     1.44423     1.19892
 Rotational constants (GHZ):         147.07727    30.09288    24.98151
 Zero-point vibrational energy     134230.2 (Joules/Mol)
                                   32.08180 (Kcal/Mol)
 Vibrational temperatures:   1195.76  1382.64  1405.13  1538.33  1786.06
          (Kelvin)           1997.73  2133.75  2467.85  4525.83  4548.48
                             4634.77  4672.05

 Zero-point correction=                           0.051126 (Hartree/Particle)
 Thermal correction to Energy=                    0.054169
 Thermal correction to Enthalpy=                  0.055113
 Thermal correction to Gibbs Free Energy=         0.028943
 Sum of electronic and zero-point Energies=            -78.542682
 Sum of electronic and thermal Energies=               -78.539639
 Sum of electronic and thermal Enthalpies=             -78.538695
 Sum of electronic and thermal Free Energies=          -78.564865

                     E (Thermal)             CV                S
                      KCal/Mol        Cal/Mol-Kelvin    Cal/Mol-Kelvin
 Total                   33.991              8.099             55.079
 Electronic               0.000              0.000              0.000
 Translational            0.889              2.981             35.927
 Rotational               0.889              2.981             18.614
 Vibrational             32.214              2.138              0.537

 Optimization completed.
    -- Stationary point found.
 Normal termination of Gaussian 16 at Fri Oct 27 15:10:07 2023.
