 Gaussian 16, Revision B.01,
 Gaussian 16:  EM64L-G16RevB.01 20-Dec-2017

 ---------------------------
 # B3LYP/6-31G(d,p) OPT FREQ
 ---------------------------

 ------
 10poly
 ------
 Symbolic Z-matrix:
 Charge =  0 Multiplicity = 1

 SCF Done:  E(RB3LYP) =  -775.250183085     A.U. after   14 cycles
 SCF Done:  E(RB3LYP) =  -775.266862233     A.U. after   13 cycles
 SCF Done:  E(RB3LYP) =  -775.268891349     A.U. after   13 cycles
 SCF Done:  E(RB3LYP) =  -775.268999566     A.U. after   10 cycles
 SCF Done:  E(RB3LYP) =  -775.269008877     A.U. after    8 cycles
 SCF Done:  E(RB3LYP) =  -775.269009132     A.U. after    7 cycles
 Optimization completed.
    -- Stationary point found.
 Normal termination of Gaussian 16 at Fri Oct 27 19:11:47 2023.

 ----------------------------------------------------------------------
 #N Geom=AllCheck Guess=TCheck SCRF=Check GenChk RB3LYP/6-31G(d,p) Freq
 ----------------------------------------------------------------------

 Structure from the checkpoint file:  "./chk/10.chk"
 ------
 10poly
 ------
 Charge =  0 Multiplicity = 1

                         Standard orientation:
 ---------------------------------------------------------------------
 Center     Atomic      Atomic             Coordinates (Angstroms)
 Number     Number       Type             X           Y           Z
 ---------------------------------------------------------------------
      1          6           0      -10.598422    1.729882   -0.000588
      2          6           0      -10.144739    0.464120    0.001077
      3          6           0       -8.760356    0.007533    0.001028
      4          6           0       -7.650217    0.790293   -0.000283
      5          6           0       -6.269903    0.361437   -0.000467
      6          6           0       -5.804138   -0.920230   -0.000246
      7          6           0       -4.427883   -1.345067   -0.000308
      8          6           0       -3.309250   -0.560884   -0.000111
      9          6           0       -1.978036   -1.076801   -0.000252
     10          6           0       -0.849466   -0.305841   -0.000046
     11          6           0        0.481535   -0.822512   -0.000187
     12          6           0        1.610110   -0.052419    0.000013
     13          6           0        2.941602   -0.570140   -0.000128
     14          6           0        4.069836    0.198625    0.000072
     15          6           0        5.402508   -0.321189   -0.000072
     16          6           0        6.530018    0.444867    0.000126
     17          6           0        7.865161   -0.079497   -0.000019
     18          6           0        8.991587    0.679903    0.000177
     19          6           0       10.333320    0.142739    0.000027
     20          6           0       11.453401    0.886547    0.000220
     21          1           0       -9.936248    2.590758   -0.002289
     22          1           0      -10.885993   -0.333842    0.002660
     23          1           0       -8.633348   -1.073220    0.002251
     24          1           0       -7.791361    1.869784   -0.001250
     25          1           0       -5.540953    1.169571   -0.000912
     26          1           0       -6.532514   -1.728845   -0.000080
     27          1           0       -4.272192   -2.423316   -0.000514
     28          1           0       -3.412100    0.523573    0.000199
     29          1           0       -1.866094   -2.161510   -0.000543
     30          1           0       -0.961296    0.778781    0.000244
     31          1           0        0.593259   -1.907182   -0.000475
     32          1           0        1.498931    1.032269    0.000302
     33          1           0        3.052209   -1.654942   -0.000416
     34          1           0        3.960196    1.283440    0.000361
     35          1           0        5.510979   -1.406244   -0.000361
     36          1           0        6.423579    1.529929    0.000416
     37          1           0        7.968801   -1.165149   -0.000309
     38          1           0        8.894885    1.765811    0.000467
     39          1           0       10.419627   -0.943903   -0.000263
     40          1           0       11.413375    1.972662    0.000510
     41          1           0       12.438746    0.433160    0.000094
     42          1           0      -11.662514    1.940232   -0.000297
 ---------------------------------------------------------------------

 SCF Done:  E(RB3LYP) =  -775.269009132     A.U. after    1 cycles

 The electronic state is 1-A.
 Alpha  occ. eigenvalues --  -10.19524 -10.19513 -10.19500 -10.19485 -10.19481
 Alpha  occ. eigenvalues --  -10.19453 -10.19437 -10.19427 -10.19418 -10.19416
 Alpha  occ. eigenvalues --  -10.19399 -10.19399 -10.19366 -10.19348 -10.19329
 Alpha  occ. eigenvalues --  -10.19315 -10.19296 -10.19177 -10.18424 -10.18303
 Alpha  occ. eigenvalues --   -0.83236  -0.82659  -0.81833  -0.80741  -0.79345
 Alpha  occ. eigenvalues --   -0.77698  -0.75797  -0.73694  -0.71324  -0.68968
 Alpha  occ. eigenvalues --   -0.65631  -0.63184  -0.60317  -0.58433  -0.56699
 Alpha  occ. eigenvalues --   -0.56072  -0.55633  -0.54934  -0.54426  -0.50864
 Alpha  occ. eigenvalues --   -0.49933  -0.48319  -0.47990  -0.46430  -0.46188
 Alpha  occ. eigenvalues --   -0.44463  -0.44192  -0.42258  -0.42069  -0.40772
 Alpha  occ. eigenvalues --   -0.39811  -0.38856  -0.37875  -0.37297  -0.36522
 Alpha  occ. eigenvalues --   -0.36417  -0.35732  -0.35600  -0.35253  -0.34932
 Alpha  occ. eigenvalues --   -0.34873  -0.34652  -0.33928  -0.33839  -0.32435
 Alpha  occ. eigenvalues --   -0.30632  -0.28491  -0.25988  -0.23161  -0.20057
 Alpha  occ. eigenvalues --   -0.16910
 Alpha virt. eigenvalues --   -0.09085  -0.05784  -0.02103   0.01173   0.04286
 Alpha virt. eigenvalues --    0.07171   0.08129   0.08880   0.09143   0.10112
 Alpha virt. eigenvalues --    0.10289   0.10793   0.10880   0.11600   0.12510

 Mulliken charges:
               1
     1  C   -0.242549
     2  C   -0.045309
     3  C   -0.079617
     4  C   -0.076126
     5  C   -0.082140
     6  C   -0.076290
     7  C   -0.105129
     8  C   -0.053560
     9  C   -0.076367
    10  C   -0.080789
    11  C   -0.077291
    12  C   -0.077748
    13  C   -0.077569
    14  C   -0.078209
    15  C   -0.076661
    16  C   -0.078679
    17  C   -0.075330
    18  C   -0.077155
    19  C   -0.029733
    20  C   -0.256122
    21  H    0.096739
    22  H    0.083703
    23  H    0.079585
    24  H    0.078953
    25  H    0.079468
    26  H    0.080377
    27  H    0.079979
    28  H    0.079166
    29  H    0.078333
    30  H    0.078096
    31  H    0.078142
    32  H    0.078155
    33  H    0.078117
    34  H    0.078290
    35  H    0.078124
    36  H    0.078584
    37  H    0.078351
    38  H    0.078476
    39  H    0.081389
    40  H    0.097306
    41  H    0.101594
    42  H    0.101443
 Sum of Mulliken charges =  -0.00000

 Dipole moment (field-independent basis, Debye):
    X=              0.0932    Y=             -0.1249    Z=              0.0001  Tot=              0.1559
 Quadrupole moment (field-independent basis, Debye-Ang):
   XX=           -111.2299   YY=           -106.8870   ZZ=           -130.7489
   XY=              0.6325   XZ=             -0.0038   YZ=             -0.0027

  Exact polarizability:1665.664  43.391 210.905   0.012  -0.013  71.389
 Approx polarizability:2580.103 158.821 369.123   0.039  -0.021 109.029

 ******    1 imaginary frequencies (negative Signs) ******

                      1                      2                      3
                      A                      A                      A
 Frequencies --    -46.5270                 3.1778                15.7255
 Red. masses --      2.2315                 2.7098                 5.2208
 Frc consts  --      0.0028                 0.0000                 0.0008
 IR Inten    --      0.0462                 0.0000                 0.2949

                      4                      5                      6
                      A                      A                      A
 Frequencies --     16.7199                37.4414                43.6024
 Red. masses --      3.6817                 2.7372                 4.9598
 Frc consts  --      0.0006                 0.0023                 0.0056
 IR Inten    --      0.0455                 0.0191                 0.3715

                      7                      8                      9
                      A                      A                      A
 Frequencies --     63.1882                85.9671                95.8224
 Red. masses --      3.2714                 4.6154                 2.7480
 Frc consts  --      0.0077                 0.0201                 0.0149
 IR Inten    --      0.0837                 0.0259                 0.1260

                     10                     11                     12
                      A                      A                      A
 Frequencies --    111.1328               123.7975               130.5823
 Red. masses --      2.0323                 4.8963                 1.8432
 Frc consts  --      0.0148                 0.0442                 0.0185
 IR Inten    --      0.3260                 0.4097                 0.0192

                     13                     14                     15
                      A                      A                      A
 Frequencies --    146.4940               161.9719               197.2256
 Red. masses --      4.7825                 3.8861                 4.1307
 Frc consts  --      0.0605                 0.0601                 0.0947
 IR Inten    --      2.5276                 0.0766                 2.4366

                     16                     17                     18
                      A                      A                      A
 Frequencies --    210.1703               230.3375               240.5498
 Red. masses --      1.8777                 2.8530                 4.5593
 Frc consts  --      0.0489                 0.0892                 0.1554
 IR Inten    --      0.2447                 0.0953                 4.6534

                     19                     20                     21
                      A                      A                      A
 Frequencies --    252.6915               268.3650               297.1238
 Red. masses --      3.9959                 2.3829                 2.7710
 Frc consts  --      0.1503                 0.1011                 0.1441
 IR Inten    --      2.6561                 0.1149                 0.0055

                     22                     23                     24
                      A                      A                      A
 Frequencies --    313.0607               321.2288               373.5380
 Red. masses --      2.0070                 3.6921                 2.0745
 Frc consts  --      0.1159                 0.2245                 0.1705
 IR Inten    --      0.2426                19.8247                 0.0532

                     25                     26                     27
                      A                      A                      A
 Frequencies --    382.5529               407.6780               414.0697
 Red. masses --      5.0135                 2.8994                 3.4167
 Frc consts  --      0.4323                 0.2839                 0.3451
 IR Inten    --      1.6747                 0.0845                 3.5298

                     28                     29                     30
                      A                      A                      A
 Frequencies --    429.9957               482.4350               505.0035
 Red. masses --      3.4928                 3.7251                 3.3614
 Frc consts  --      0.3805                 0.5108                 0.5051
 IR Inten    --      0.0067               100.3257                 0.2537

                     31                     32                     33
                      A                      A                      A
 Frequencies --    538.6333               585.7687               611.4786
 Red. masses --      3.5069                 3.1687                 3.4005
 Frc consts  --      0.5995                 0.6406                 0.7491
 IR Inten    --      8.9763                 0.5882                 5.1875

                     34                     35                     36
                      A                      A                      A
 Frequencies --    627.1478               628.9576               662.7907
 Red. masses --      3.2715                 1.5151                 1.3721
 Frc consts  --      0.7581                 0.3531                 0.3551
 IR Inten    --      1.2823                 4.8910                 3.5523

                     37                     38                     39
                      A                      A                      A
 Frequencies --    764.2889               816.3381               843.8054
 Red. masses --      3.7403                 1.5839                 1.4801
 Frc consts  --      1.2873                 0.6219                 0.6209
 IR Inten    --      1.0143                 0.0073                 0.0044

                     40                     41                     42
                      A                      A                      A
 Frequencies --    861.3593               878.8123               895.0621
 Red. masses --      1.7186                 1.8663                 1.9686
 Frc consts  --      0.7513                 0.8492                 0.9292
 IR Inten    --      2.1667                 0.0768                 2.7929

                     43                     44                     45
                      A                      A                      A
 Frequencies --    905.8289               911.3543               913.3533
 Red. masses --      1.9596                 1.4611                 1.8451
 Frc consts  --      0.9474                 0.7150                 0.9069
 IR Inten    --      0.3911                35.9364                 0.0018

                     46                     47                     48
                      A                      A                      A
 Frequencies --    917.8860               920.9680               931.7044
 Red. masses --      1.7801                 1.9446                 1.1650
 Frc consts  --      0.8836                 0.9718                 0.5958
 IR Inten    --     20.5300                 9.2355                 0.0547

                     49                     50                     51
                      A                      A                      A
 Frequencies --    950.5653               966.8852               968.6977
 Red. masses --      1.1379                 1.4959                 2.9639
 Frc consts  --      0.6058                 0.8239                 1.6386
 IR Inten    --      4.9944                 0.7355                 6.8228

                     52                     53                     54
                      A                      A                      A
 Frequencies --    974.5882               996.4390              1006.2679
 Red. masses --      1.1103                 1.0983                 1.1050
 Frc consts  --      0.6214                 0.6425                 0.6592
 IR Inten    --      3.0960                46.6460                 5.5473

                     55                     56                     57
                      A                      A                      A
 Frequencies --   1015.6720              1028.7120              1029.6075
 Red. masses --      1.1248                 2.1146                 1.0921
 Frc consts  --      0.6836                 1.3184                 0.6821
 IR Inten    --      0.4230                 9.1920                 0.2080

                     58                     59                     60
                      A                      A                      A
 Frequencies --   1034.6720              1049.0141              1059.8848
 Red. masses --      1.1234                 1.0889                 1.0883
 Frc consts  --      0.7086                 0.7060                 0.7203
 IR Inten    --      5.7650                17.2866               136.0517

                     61                     62                     63
                      A                      A                      A
 Frequencies --   1075.1124              1161.1609              1167.2477
 Red. masses --      1.7076                 2.1694                 2.0273
 Frc consts  --      1.1629                 1.7233                 1.6274
 IR Inten    --     20.3952                 1.9698                 0.1807

                     64                     65                     66
                      A                      A                      A
 Frequencies --   1175.4875              1181.8568              1192.8287
 Red. masses --      2.2510                 2.4331                 1.4777
 Frc consts  --      1.8326                 2.0023                 1.2388
 IR Inten    --      3.1812                 0.6052                32.4412

                     67                     68                     69
                      A                      A                      A
 Frequencies --   1209.0669              1224.8906              1236.0409
 Red. masses --      2.3111                 1.5836                 1.7768
 Frc consts  --      1.9905                 1.3999                 1.5994
 IR Inten    --      0.5464                 7.5410                20.2364

                     70                     71                     72
                      A                      A                      A
 Frequencies --   1253.0013              1276.6258              1303.8491
 Red. masses --      1.4373                 1.3089                 1.4201
 Frc consts  --      1.3295                 1.2569                 1.4224
 IR Inten    --     13.0732                 0.6704                11.2366

                     73                     74                     75
                      A                      A                      A
 Frequencies --   1308.7653              1320.3386              1322.4807
 Red. masses --      1.4105                 1.6408                 1.5354
 Frc consts  --      1.4235                 1.6853                 1.5822
 IR Inten    --      1.1613                18.5255                 3.6112

                     76                     77                     78
                      A                      A                      A
 Frequencies --   1324.1678              1327.2159              1327.8056
 Red. masses --      1.7505                 1.8897                 1.3346
 Frc consts  --      1.8084                 1.9612                 1.3863
 IR Inten    --     19.7813                19.4317                 0.2364

                     79                     80                     81
                      A                      A                      A
 Frequencies --   1332.0160              1335.9041              1346.1916
 Red. masses --      1.3503                 1.3081                 1.3784
 Frc consts  --      1.4116                 1.3754                 1.4718
 IR Inten    --      0.4704                 2.8590                 0.3254

                     82                     83                     84
                      A                      A                      A
 Frequencies --   1353.6292              1362.9265              1375.2275
 Red. masses --      1.6215                 1.3506                 1.5221
 Frc consts  --      1.7505                 1.4782                 1.6961
 IR Inten    --      7.2424                 1.6761                 0.4754

                     85                     86                     87
                      A                      A                      A
 Frequencies --   1379.1195              1417.1301              1466.6787
 Red. masses --      1.4548                 1.6927                 1.2737
 Frc consts  --      1.6302                 2.0029                 1.6143
 IR Inten    --     37.4222                 5.2783                10.0199

                     88                     89                     90
                      A                      A                      A
 Frequencies --   1467.1176              1553.2113              1601.9441
 Red. masses --      1.3139                 2.6498                 4.6238
 Frc consts  --      1.6663                 3.7664                 6.9911
 IR Inten    --      3.4653                65.4182                 0.1248

                     91                     92                     93
                      A                      A                      A
 Frequencies --   1614.6586              1642.4190              1657.7216
 Red. masses --      3.6266                 4.4443                 4.1557
 Frc consts  --      5.5707                 7.0635                 6.7285
 IR Inten    --     13.8256                 3.3008                 2.2554

                     94                     95                     96
                      A                      A                      A
 Frequencies --   1672.7386              1679.1066              1689.5518
 Red. masses --      4.5088                 4.2715                 4.3949
 Frc consts  --      7.4330                 7.0956                 7.3916
 IR Inten    --      1.7151                 2.1996                 4.6166

                     97                     98                     99
                      A                      A                      A
 Frequencies --   1699.0944              1699.5737              3137.6970
 Red. masses --      3.8664                 4.2391                 1.0884
 Frc consts  --      6.5765                 7.2144                 6.3135
 IR Inten    --      4.6074                11.1962                 1.4637

                    100                    101                    102
                      A                      A                      A
 Frequencies --   3138.0797              3139.1025              3139.6769
 Red. masses --      1.0886                 1.0888                 1.0895
 Frc consts  --      6.3162                 6.3214                 6.3277
 IR Inten    --      0.0534                 4.4083                 2.3646

                    103                    104                    105
                      A                      A                      A
 Frequencies --   3140.8667              3141.5683              3142.0267
 Red. masses --      1.0886                 1.0889                 1.0890
 Frc consts  --      6.3273                 6.3318                 6.3340
 IR Inten    --      1.8903                12.5322                32.3941

                    106                    107                    108
                      A                      A                      A
 Frequencies --   3143.1215              3146.3619              3147.1016
 Red. masses --      1.0881                 1.0875                 1.0864
 Frc consts  --      6.3335                 6.3429                 6.3398
 IR Inten    --      6.1775                 4.2835                16.6976

                    109                    110                    111
                      A                      A                      A
 Frequencies --   3149.7233              3150.7862              3152.7388
 Red. masses --      1.0861                 1.0830                 1.0851
 Frc consts  --      6.3486                 6.3347                 6.3548
 IR Inten    --      3.2611               120.4567                 8.6238

                    112                    113                    114
                      A                      A                      A
 Frequencies --   3154.7210              3157.3519              3158.7263
 Red. masses --      1.0849                 1.0847                 1.0669
 Frc consts  --      6.3618                 6.3708                 6.2718
 IR Inten    --    175.1418                81.4167                15.3451

                    115                    116                    117
                      A                      A                      A
 Frequencies --   3162.2969              3164.8264              3169.2038
 Red. masses --      1.0679                 1.0897                 1.0871
 Frc consts  --      6.2921                 6.4309                 6.4328
 IR Inten    --      3.4704                10.1825                23.6001

                    118                    119                    120
                      A                      A                      A
 Frequencies --   3173.0453              3247.8137              3247.8921
 Red. masses --      1.0873                 1.1158                 1.1158
 Frc consts  --      6.4501                 6.9345                 6.9349
 IR Inten    --     68.9408                17.6111                15.2239

 - Thermochemistry -
 -------------------
 Temperature   298.150 Kelvin.  Pressure   1.00000 Atm.
 Atom     1 has atomic number  6 and mass  12.00000

 Molecular mass:   262.17215 amu.
 Principal axes and moments of inertia in atomic units:
                           1         2         3
     Eigenvalues --   656.90373********************
           X            1.00000  -0.00051   0.00000
           Y            0.00051   1.00000  -0.00002
           Z           -0.00000   0.00002   1.00000
 This molecule is an asymmetric top.
 Rotational symmetry number  1.
 Warning -- assumption of classical behavior for rotation
           may cause significant error
 Rotational temperatures (Kelvin)      0.13185     0.00194     0.00191
 Rotational constants (GHZ):           2.74735     0.04039     0.03981
    1 imaginary frequencies ignored.
 Zero-point vibrational energy     926488.8 (Joules/Mol)
                                  221.43613 (Kcal/Mol)
 Warning -- explicit consideration of  32 degrees of freedom as
           vibrations may cause significant error
 Vibrational temperatures:      4.57    22.63    24.06    53.87    62.73
          (Kelvin)             90.91   123.69   137.87   159.90   178.12
                              187.88   210.77   233.04   283.76   302.39
                              331.40   346.10   363.57   386.12   427.49
                              450.42   462.18   537.44   550.41   586.56
                              595.75   618.67   694.12   726.59   774.97
                              842.79   879.78   902.33   904.93   953.61
                             1099.64  1174.53  1214.05  1239.30  1264.41
                             1287.79  1303.29  1311.24  1314.11  1320.63
                             1325.07  1340.51  1367.65  1391.13  1393.74
                             1402.22  1433.65  1447.80  1461.33  1480.09
                             1481.38  1488.66  1509.30  1524.94  1546.85
                             1670.65  1679.41  1691.26  1700.43  1716.21
                             1739.58  1762.34  1778.39  1802.79  1836.78
                             1875.95  1883.02  1899.67  1902.75  1905.18
                             1909.57  1910.42  1916.47  1922.07  1936.87
                             1947.57  1960.95  1978.65  1984.25  2038.93
                             2110.22  2110.85  2234.72  2304.84  2323.13
                             2363.07  2385.09  2406.70  2415.86  2430.89
                             2444.62  2445.31  4514.45  4515.00  4516.47
                             4517.29  4519.01  4520.02  4520.68  4522.25
                             4526.91  4527.98  4531.75  4533.28  4536.09
                             4538.94  4542.73  4544.70  4549.84  4553.48
                             4559.78  4565.30  4672.88  4672.99

 Zero-point correction=                           0.352881 (Hartree/Particle)
 Thermal correction to Energy=                    0.374585
 Thermal correction to Enthalpy=                  0.375529
 Thermal correction to Gibbs Free Energy=         0.296165
 Sum of electronic and zero-point Energies=           -774.916128
 Sum of electronic and thermal Energies=              -774.894424
 Sum of electronic and thermal Enthalpies=            -774.893480
 Sum of electronic and thermal Free Energies=         -774.972844

                     E (Thermal)             CV                S
                      KCal/Mol        Cal/Mol-Kelvin    Cal/Mol-Kelvin
 Total                  235.056             78.680            167.036
 Electronic               0.000              0.000              0.000
 Translational            0.889              2.981             42.591
 Rotational               0.889              2.981             35.541
 Vibrational            233.278             72.718             88.904
 Vibration     1          0.592              1.987             10.289
 Vibration     2          0.593              1.986              7.112
 Vibration     3          0.593              1.986              6.990
 Vibration     4          0.594              1.982              5.390
 Vibration     5          0.595              1.980              5.088
 Vibration     6          0.597              1.972              4.355
 Vibration     7          0.601              1.959              3.750
 Vibration     8          0.603              1.952              3.538
 Vibration     9          0.607              1.940              3.249
 Vibration    10          0.610              1.929              3.040
 Vibration    11          0.612              1.923              2.937
 Vibration    12          0.617              1.906              2.717
 Vibration    13          0.622              1.889              2.527
 Vibration    14          0.637              1.844              2.159
 Vibration    15          0.642              1.825              2.042
 Vibration    16          0.652              1.795              1.876
 Vibration    17          0.658              1.778              1.799
 Vibration    18          0.664              1.758              1.712
 Vibration    19          0.673              1.731              1.607
 Vibration    20          0.691              1.679              1.433
 Vibration    21          0.701              1.649              1.346
 Vibration    22          0.707              1.633              1.304
 Vibration    23          0.745              1.526              1.065
 Vibration    24          0.752              1.507              1.029
 Vibration    25          0.772              1.454              0.935
 Vibration    26          0.778              1.440              0.912
 Vibration    27          0.791              1.405              0.859
 Vibration    28          0.839              1.289              0.704
 Vibration    29          0.860              1.239              0.646
 Vibration    30          0.894              1.165              0.568
 Vibration    31          0.943              1.062              0.475
 Vibration    32          0.971              1.008              0.430

                           ! Non-Optimized Parameters !
 Normal termination of Gaussian 16 at Fri Oct 27 20:08:36 2023.
