 Gaussian 16, Revision B.01,
 Gaussian 16:  EM64L-G16RevB.01 20-Dec-2017

 ---------------------------
 # B3LYP/6-31G(d,p) OPT FREQ
 ---------------------------

 ------
 11poly
 ------
 Symbolic Z-matrix:
 Charge =  0 Multiplicity = 1

 SCF Done:  E(RB3LYP) =  -852.672707317     A.U. after   13 cycles
 SCF Done:  E(RB3LYP) =  -852.693627615     A.U. after   12 cycles
 SCF Done:  E(RB3LYP) =  -852.697312112     A.U. after   13 cycles
 SCF Done:  E(RB3LYP) =  -852.697458918     A.U. after    9 cycles
 SCF Done:  E(RB3LYP) =  -852.697471587     A.U. after    8 cycles
 SCF Done:  E(RB3LYP) =  -852.697472093     A.U. after    7 cycles
 Optimization completed.
    -- Stationary point found.
 Normal termination of Gaussian 16 at Thu Nov  9 21:21:29 2023.

 ----------------------------------------------------------------------
 #N Geom=AllCheck Guess=TCheck SCRF=Check GenChk RB3LYP/6-31G(d,p) Freq
 ----------------------------------------------------------------------

 Structure from the checkpoint file:  "checkpoint.chk"
 ------
 11poly
 ------
 Charge =  0 Multiplicity = 1

                         Standard orientation:
 ---------------------------------------------------------------------
 Center     Atomic      Atomic             Coordinates (Angstroms)
 Number     Number       Type             X           Y           Z
 ---------------------------------------------------------------------
      1          6           0       12.961597   -0.241995   -0.000004
      2          6           0       11.770710    0.382195   -0.000004
      3          6           0       10.491544   -0.290531   -0.000004
      4          6           0        9.292789    0.348593   -0.000003
      5          6           0        8.018789   -0.310634   -0.000003
      6          6           0        6.818327    0.335063   -0.000002
      7          6           0        5.546249   -0.319329   -0.000001
      8          6           0        4.344841    0.329005    0.000001
      9          6           0        3.073652   -0.323198    0.000001
     10          6           0        1.871809    0.326346    0.000003
     11          6           0        0.600986   -0.324959    0.000004
     12          6           0       -0.600985    0.324943    0.000006
     13          6           0       -1.871809   -0.326361    0.000006
     14          6           0       -3.073651    0.323186    0.000007
     15          6           0       -4.344842   -0.329014    0.000007
     16          6           0       -5.546248    0.319323    0.000005
     17          6           0       -6.818329   -0.335064    0.000004
     18          6           0       -8.018788    0.310637    0.000002
     19          6           0       -9.292791   -0.348585   -0.000001
     20          6           0      -10.491543    0.290543   -0.000004
     21          6           0      -11.770711   -0.382180   -0.000008
     22          6           0      -12.961597    0.242014   -0.000012
     23          1           0       13.894877    0.310686   -0.000004
     24          1           0       13.033908   -1.326442   -0.000005
     25          1           0       11.744397    1.471948   -0.000003
     26          1           0       10.507396   -1.380625   -0.000004
     27          1           0        9.283904    1.439151   -0.000002
     28          1           0        8.024804   -1.400892   -0.000003
     29          1           0        6.814362    1.425527   -0.000001
     30          1           0        5.549023   -1.409672   -0.000002
     31          1           0        4.343030    1.419438    0.000001
     32          1           0        3.074923   -1.413577    0.000000
     33          1           0        1.870932    1.416761    0.000004
     34          1           0        0.601704   -1.415357    0.000004
     35          1           0       -0.601703    1.415342    0.000007
     36          1           0       -1.870933   -1.416775    0.000006
     37          1           0       -3.074919    1.413564    0.000007
     38          1           0       -4.343033   -1.419447    0.000007
     39          1           0       -5.549018    1.409666    0.000006
     40          1           0       -6.814367   -1.425529    0.000005
     41          1           0       -8.024799    1.400895    0.000001
     42          1           0       -9.283909   -1.439144    0.000000
     43          1           0      -10.507392    1.380637   -0.000005
     44          1           0      -11.744402   -1.471932   -0.000006
     45          1           0      -13.033905    1.326461   -0.000013
     46          1           0      -13.894878   -0.310664   -0.000014
 ---------------------------------------------------------------------

 SCF Done:  E(RB3LYP) =  -852.697472092     A.U. after    1 cycles

 The electronic state is 1-A.
 Alpha  occ. eigenvalues --  -10.19498 -10.19491 -10.19484 -10.19476 -10.19467
 Alpha  occ. eigenvalues --  -10.19457 -10.19454 -10.19426 -10.19417 -10.19411
 Alpha  occ. eigenvalues --  -10.19405 -10.19399 -10.19393 -10.19389 -10.19375
 Alpha  occ. eigenvalues --  -10.19375 -10.19347 -10.19347 -10.19273 -10.19273
 Alpha  occ. eigenvalues --  -10.18403 -10.18403  -0.83276  -0.82856  -0.82192
 Alpha  occ. eigenvalues --   -0.81291  -0.80158  -0.78799  -0.77221  -0.75434
 Alpha  occ. eigenvalues --   -0.73460  -0.71340  -0.69235  -0.65282  -0.62789
 Alpha  occ. eigenvalues --   -0.60120  -0.57505  -0.56844  -0.56486  -0.55964
 Alpha  occ. eigenvalues --   -0.55307  -0.55278  -0.54568  -0.54311  -0.48979
 Alpha  occ. eigenvalues --   -0.48577  -0.47940  -0.47102  -0.46019  -0.45507
 Alpha  occ. eigenvalues --   -0.43930  -0.43641  -0.41943  -0.41431  -0.40289
 Alpha  occ. eigenvalues --   -0.39584  -0.38749  -0.38143  -0.37555  -0.37087
 Alpha  occ. eigenvalues --   -0.36784  -0.36165  -0.35697  -0.35663  -0.35380
 Alpha  occ. eigenvalues --   -0.35125  -0.35100  -0.34687  -0.34595  -0.34262
 Alpha  occ. eigenvalues --   -0.33080  -0.31585  -0.29779  -0.27668  -0.25261
 Alpha  occ. eigenvalues --   -0.22579  -0.19678  -0.16782
 Alpha virt. eigenvalues --   -0.09002  -0.05859  -0.02537   0.00675   0.03621
 Alpha virt. eigenvalues --    0.06163   0.08180   0.08340   0.08943   0.09597
 Alpha virt. eigenvalues --    0.09879   0.10427   0.10788   0.10878   0.11102

 Mulliken charges:
               1
     1  C   -0.256216
     2  C   -0.029705
     3  C   -0.077237
     4  C   -0.075313
     5  C   -0.078764
     6  C   -0.076660
     7  C   -0.078302
     8  C   -0.077480
     9  C   -0.078043
    10  C   -0.077738
    11  C   -0.077897
    12  C   -0.077897
    13  C   -0.077738
    14  C   -0.078043
    15  C   -0.077480
    16  C   -0.078302
    17  C   -0.076660
    18  C   -0.078764
    19  C   -0.075313
    20  C   -0.077237
    21  C   -0.029705
    22  C   -0.256216
    23  H    0.101494
    24  H    0.097220
    25  H    0.081305
    26  H    0.078376
    27  H    0.078260
    28  H    0.078472
    29  H    0.078020
    30  H    0.078167
    31  H    0.077984
    32  H    0.078058
    33  H    0.077988
    34  H    0.078011
    35  H    0.078011
    36  H    0.077988
    37  H    0.078058
    38  H    0.077984
    39  H    0.078167
    40  H    0.078020
    41  H    0.078473
    42  H    0.078260
    43  H    0.078376
    44  H    0.081305
    45  H    0.097220
    46  H    0.101494
 Sum of Mulliken charges =  -0.00000

 Dipole moment (field-independent basis, Debye):
    X=             -0.0000    Y=             -0.0000    Z=              0.0000  Tot=              0.0000
 Quadrupole moment (field-independent basis, Debye-Ang):
   XX=           -123.1136   YY=           -117.5700   ZZ=           -143.6976
   XY=              0.4561   XZ=              0.0000   YZ=              0.0000

  Exact polarizability:2172.693-100.375 199.729   0.000  -0.000  78.638
 Approx polarizability:3266.610-277.827 328.381   0.000  -0.000 120.454

                      1                      2                      3
                      A                      A                      A
 Frequencies --      8.9410                12.1291                24.5938
 Red. masses --      5.5473                 5.3496                 5.4643
 Frc consts  --      0.0003                 0.0005                 0.0019
 IR Inten    --      0.0090                 0.3778                 0.0000

                      4                      5                      6
                      A                      A                      A
 Frequencies --     33.4687                47.2993                64.7940
 Red. masses --      5.0814                 5.0548                 4.7950
 Frc consts  --      0.0034                 0.0067                 0.0119
 IR Inten    --      0.0000                 0.0357                 1.5578

                      7                      8                      9
                      A                      A                      A
 Frequencies --     65.7656                77.2868               105.1918
 Red. masses --      1.5945                 5.0413                 4.5009
 Frc consts  --      0.0041                 0.0177                 0.0293
 IR Inten    --      0.1152                 0.0000                 0.0000

                     10                     11                     12
                      A                      A                      A
 Frequencies --    113.6093               128.3725               131.9007
 Red. masses --      4.6818                 1.7166                 5.9550
 Frc consts  --      0.0356                 0.0167                 0.0610
 IR Inten    --      0.1253                 0.0000                 0.0000

                     13                     14                     15
                      A                      A                      A
 Frequencies --    153.4102               156.2825               183.8193
 Red. masses --      4.2185                 3.7137                 2.3012
 Frc consts  --      0.0585                 0.0534                 0.0458
 IR Inten    --      3.3881                 0.0000                 0.0126

                     16                     17                     18
                      A                      A                      A
 Frequencies --    206.2147               208.2333               231.2572
 Red. masses --      2.3655                 3.9551                 3.0395
 Frc consts  --      0.0593                 0.1010                 0.0958
 IR Inten    --      0.3266                 0.0000                 0.0000

                     19                     20                     21
                      A                      A                      A
 Frequencies --    256.5438               259.9023               269.4141
 Red. masses --      5.2565                 1.8808                 3.9181
 Frc consts  --      0.2038                 0.0749                 0.1676
 IR Inten    --     19.6814                 0.0000                 0.5488

                     22                     23                     24
                      A                      A                      A
 Frequencies --    272.5491               306.0575               310.4583
 Red. masses --      3.3512                 3.3659                 1.8012
 Frc consts  --      0.1467                 0.1858                 0.1023
 IR Inten    --      0.0070                 0.0000                 0.3014

                     25                     26                     27
                      A                      A                      A
 Frequencies --    329.7211               355.0903               375.5412
 Red. masses --      3.4845                 1.9088                 5.2003
 Frc consts  --      0.2232                 0.1418                 0.4321
 IR Inten    --      0.0000                 0.0000                 0.0000

                     28                     29                     30
                      A                      A                      A
 Frequencies --    393.1362               393.9257               422.4524
 Red. masses --      2.1740                 3.2774                 2.7125
 Frc consts  --      0.1980                 0.2996                 0.2852
 IR Inten    --      0.1823                 7.8427                 0.0000

                     31                     32                     33
                      A                      A                      A
 Frequencies --    440.2109               458.1348               474.7113
 Red. masses --      3.7812                 3.0952                 4.3945
 Frc consts  --      0.4317                 0.3828                 0.5835
 IR Inten    --      0.0360                 0.0000                16.1385

                     34                     35                     36
                      A                      A                      A
 Frequencies --    514.6829               549.3539               577.3016
 Red. masses --      3.2023                 3.5138                 3.3814
 Frc consts  --      0.4998                 0.6248                 0.6640
 IR Inten    --      2.4626                 0.0000                 0.0000

                     37                     38                     39
                      A                      A                      A
 Frequencies --    598.6320               624.0174               629.7915
 Red. masses --      3.1925                 3.3000                 3.1703
 Frc consts  --      0.6741                 0.7571                 0.7409
 IR Inten    --      7.6460                 0.1948                 0.0000

                     40                     41                     42
                      A                      A                      A
 Frequencies --    662.9168               662.9555               836.2100
 Red. masses --      1.3715                 1.3728                 1.3477
 Frc consts  --      0.3551                 0.3555                 0.5552
 IR Inten    --      0.0000                 7.0866                 0.0000

                     43                     44                     45
                      A                      A                      A
 Frequencies --    848.6296               864.6737               879.5369
 Red. masses --      1.4886                 1.6549                 1.8112
 Frc consts  --      0.6316                 0.7290                 0.8255
 IR Inten    --      0.4438                 0.0000                 1.3629

                     46                     47                     48
                      A                      A                      A
 Frequencies --    892.0727               902.1871               909.8519
 Red. masses --      1.9267                 1.9753                 1.9123
 Frc consts  --      0.9033                 0.9473                 0.9327
 IR Inten    --      0.0000                 5.4428                 0.0000

                     49                     50                     51
                      A                      A                      A
 Frequencies --    914.9318               917.9722               920.2919
 Red. masses --      1.7294                 1.6488                 1.7562
 Frc consts  --      0.8529                 0.8186                 0.8764
 IR Inten    --     29.5777                 0.0000                35.0328

                     52                     53                     54
                      A                      A                      A
 Frequencies --    921.4746               927.8568               939.1643
 Red. masses --      2.0577                 1.1596                 1.1466
 Frc consts  --      1.0295                 0.5882                 0.5959
 IR Inten    --      0.0000                 1.1607                 0.0000

                     55                     56                     57
                      A                      A                      A
 Frequencies --    953.1757               966.9252               966.9421
 Red. masses --      1.1330                 1.4930                 1.4927
 Frc consts  --      0.6065                 0.8224                 0.8223
 IR Inten    --      1.5175                 2.0421                 0.0000

                     58                     59                     60
                      A                      A                      A
 Frequencies --    969.3955               987.1681              1005.4888
 Red. masses --      1.1184                 1.1052                 1.0962
 Frc consts  --      0.6192                 0.6345                 0.6529
 IR Inten    --      0.0000                 1.4338                 0.0000

                     61                     62                     63
                      A                      A                      A
 Frequencies --   1023.0311              1038.4260              1050.5238
 Red. masses --      1.0916                 1.0899                 1.0896
 Frc consts  --      0.6731                 0.6925                 0.7085
 IR Inten    --      1.1705                 0.0000                 0.9700

                     64                     65                     66
                      A                      A                      A
 Frequencies --   1058.4417              1061.3273              1162.6932
 Red. masses --      1.0897                 1.0873                 3.1037
 Frc consts  --      0.7193                 0.7216                 2.4721
 IR Inten    --      0.0000               248.6102                 0.0177

                     67                     68                     69
                      A                      A                      A
 Frequencies --   1164.2294              1172.7429              1173.4577
 Red. masses --      2.2504                 3.4435                 1.8059
 Frc consts  --      1.7971                 2.7903                 1.4651
 IR Inten    --      0.0000                 0.0000                 1.8857

                     70                     71                     72
                      A                      A                      A
 Frequencies --   1173.9591              1190.8959              1192.6990
 Red. masses --      1.9391                 1.5008                 2.2267
 Frc consts  --      1.5746                 1.2541                 1.8663
 IR Inten    --      0.0000                 0.0000                38.4239

                     73                     74                     75
                      A                      A                      A
 Frequencies --   1195.4980              1216.3026              1218.7325
 Red. masses --      1.8638                 3.2200                 1.3318
 Frc consts  --      1.5695                 2.8067                 1.1655
 IR Inten    --     41.2615                 0.0000                67.6246

                     76                     77                     78
                      A                      A                      A
 Frequencies --   1233.8721              1238.5754              1256.3709
 Red. masses --      2.5792                 1.3413                 1.2945
 Frc consts  --      2.3136                 1.2123                 1.2039
 IR Inten    --      0.0559                 0.0000                29.0227

                     79                     80                     81
                      A                      A                      A
 Frequencies --   1273.6906              1291.3642              1309.8126
 Red. masses --      1.2570                 1.2457                 1.3027
 Frc consts  --      1.2014                 1.2240                 1.3168
 IR Inten    --      0.0000                11.7814                 0.0000

                     82                     83                     84
                      A                      A                      A
 Frequencies --   1319.6218              1320.9801              1321.5893
 Red. masses --      1.5131                 1.8790                 1.5805
 Frc consts  --      1.5524                 1.9319                 1.6264
 IR Inten    --     15.8463                 0.0000                17.3119

                     85                     86                     87
                      A                      A                      A
 Frequencies --   1323.8014              1324.3597              1326.2803
 Red. masses --      1.4510                 2.0720                 1.4249
 Frc consts  --      1.4982                 2.1412                 1.4768
 IR Inten    --      0.0000               119.1667                 0.0000

                     88                     89                     90
                      A                      A                      A
 Frequencies --   1328.2018              1330.3562              1333.4371
 Red. masses --      2.5936                 1.3415                 1.3412
 Frc consts  --      2.6957                 1.3989                 1.4050
 IR Inten    --      0.0000                 2.9086                 0.0000

                     91                     92                     93
                      A                      A                      A
 Frequencies --   1333.6540              1337.0814              1348.1249
 Red. masses --      1.3309                 1.3005                 1.3255
 Frc consts  --      1.3948                 1.3699                 1.4193
 IR Inten    --      2.5038                 0.0000                 1.5274

                     94                     95                     96
                      A                      A                      A
 Frequencies --   1380.1377              1418.3565              1465.8545
 Red. masses --      1.5020                 1.7052                 1.3093
 Frc consts  --      1.6856                 2.0212                 1.6575
 IR Inten    --      0.0000                 1.3076                 0.0000

                     97                     98                     99
                      A                      A                      A
 Frequencies --   1468.1164              1573.7945              1591.3200
 Red. masses --      1.3288                 2.8544                 4.7602
 Frc consts  --      1.6875                 4.1654                 7.1022
 IR Inten    --      4.0174                 0.0000                 0.0000

                    100                    101                    102
                      A                      A                      A
 Frequencies --   1620.1434              1630.8416              1646.4916
 Red. masses --      4.5542                 3.6766                 4.4798
 Frc consts  --      7.0432                 5.7612                 7.1553
 IR Inten    --      2.5283                 1.2064                 0.0000

                    103                    104                    105
                      A                      A                      A
 Frequencies --   1667.9672              1668.4536              1684.6192
 Red. masses --      4.2703                 4.5387                 4.6997
 Frc consts  --      6.9998                 7.4441                 7.8582
 IR Inten    --      0.0000                 9.3516                 0.0000

                    106                    107                    108
                      A                      A                      A
 Frequencies --   1687.5734              1699.1097              1700.2270
 Red. masses --      4.7126                 4.4730                 4.5257
 Frc consts  --      7.9074                 7.6083                 7.7081
 IR Inten    --      0.8259                32.3584                 0.0000

                    109                    110                    111
                      A                      A                      A
 Frequencies --   3137.5718              3137.5786              3137.9553
 Red. masses --      1.0885                 1.0884                 1.0887
 Frc consts  --      6.3136                 6.3129                 6.3159
 IR Inten    --      2.4901                 0.0003                 0.0000

                    112                    113                    114
                      A                      A                      A
 Frequencies --   3138.0129              3138.6374              3139.4966
 Red. masses --      1.0881                 1.0888                 1.0890
 Frc consts  --      6.3131                 6.3197                 6.3239
 IR Inten    --      0.6095                 5.0077                 0.0000

                    115                    116                    117
                      A                      A                      A
 Frequencies --   3140.3720              3140.6309              3141.3776
 Red. masses --      1.0888                 1.0903                 1.0890
 Frc consts  --      6.3265                 6.3365                 6.3318
 IR Inten    --      5.1454                 0.0000                 0.0001

                    118                    119                    120
                      A                      A                      A
 Frequencies --   3141.4640              3142.2558              3143.0142
 Red. masses --      1.0891                 1.0898                 1.0883
 Frc consts  --      6.3325                 6.3398                 6.3341
 IR Inten    --     84.9654                 0.0000                17.4399

                    121                    122                    123
                      A                      A                      A
 Frequencies --   3144.8848              3146.8866              3148.8674
 Red. masses --      1.0880                 1.0874                 1.0866
 Frc consts  --      6.3401                 6.3445                 6.3479
 IR Inten    --      0.0000                 2.4794                 0.0000

                    124                    125                    126
                      A                      A                      A
 Frequencies --   3150.7023              3152.3207              3153.6631
 Red. masses --      1.0859                 1.0852                 1.0849
 Frc consts  --      6.3509                 6.3537                 6.3570
 IR Inten    --      2.1169                 0.0000                 7.2959

                    127                    128                    129
                      A                      A                      A
 Frequencies --   3154.6473              3155.0054              3158.7128
 Red. masses --      1.0848                 1.0850                 1.0668
 Frc consts  --      6.3609                 6.3630                 6.2710
 IR Inten    --      0.0000               450.1540                34.6478

                    130                    131                    132
                      A                      A                      A
 Frequencies --   3158.7269              3247.9260              3247.9264
 Red. masses --      1.0669                 1.1158                 1.1158
 Frc consts  --      6.2717                 6.9350                 6.9350
 IR Inten    --      0.0018                30.9567                 0.0889

 - Thermochemistry -
 -------------------
 Temperature   298.150 Kelvin.  Pressure   1.00000 Atm.
 Atom     1 has atomic number  6 and mass  12.00000

 Molecular mass:   288.18780 amu.
 Principal axes and moments of inertia in atomic units:
                           1         2         3
     Eigenvalues --   256.61452********************
           X            1.00000  -0.00028   0.00000
           Y            0.00028   1.00000   0.00000
           Z           -0.00000  -0.00000   1.00000
 This molecule is an asymmetric top.
 Rotational symmetry number  1.
 Rotational temperatures (Kelvin)      0.33753     0.00135     0.00134
 Rotational constants (GHZ):           7.03289     0.02808     0.02797
 Zero-point vibrational energy    1015987.2 (Joules/Mol)
                                  242.82677 (Kcal/Mol)
 Warning -- explicit consideration of  37 degrees of freedom as
           vibrations may cause significant error
 Vibrational temperatures:     12.86    17.45    35.39    48.15    68.05
          (Kelvin)             93.22    94.62   111.20   151.35   163.46
                              184.70   189.78   220.72   224.86   264.48
                              296.70   299.60   332.73   369.11   373.94
                              387.63   392.14   440.35   446.68   474.40
                              510.90   540.32   565.64   566.77   607.81
                              633.37   659.15   683.00   740.51   790.40
                              830.61   861.30   897.82   906.13   953.79
                              953.85  1203.12  1220.99  1244.07  1265.46
                             1283.49  1298.05  1309.07  1316.38  1320.76
                             1324.09  1325.80  1334.98  1351.25  1371.41
                             1391.19  1391.21  1394.74  1420.31  1446.67
                             1471.91  1494.06  1511.47  1522.86  1527.01
                             1672.86  1675.07  1687.32  1688.34  1689.07
                             1713.43  1716.03  1720.06  1749.99  1753.48
                             1775.27  1782.03  1807.64  1832.56  1857.99
                             1884.53  1898.64  1900.60  1901.47  1904.65
                             1905.46  1908.22  1910.99  1914.09  1918.52
                             1918.83  1923.76  1939.65  1985.71  2040.70
                             2109.04  2112.29  2264.34  2289.55  2331.02
                             2346.42  2368.93  2399.83  2400.53  2423.79
                             2428.04  2444.64  2446.25  4514.27  4514.28
                             4514.82  4514.90  4515.80  4517.04  4518.29
                             4518.67  4519.74  4519.87  4521.01  4522.10
                             4524.79  4527.67  4530.52  4533.16  4535.49
                             4537.42  4538.83  4539.35  4544.68  4544.70
                             4673.04  4673.04

 Zero-point correction=                           0.386969 (Hartree/Particle)
 Thermal correction to Energy=                    0.411164
 Thermal correction to Enthalpy=                  0.412108
 Thermal correction to Gibbs Free Energy=         0.329069
 Sum of electronic and zero-point Energies=           -852.310503
 Sum of electronic and thermal Energies=              -852.286308
 Sum of electronic and thermal Enthalpies=            -852.285364
 Sum of electronic and thermal Free Energies=         -852.368403

                     E (Thermal)             CV                S
                      KCal/Mol        Cal/Mol-Kelvin    Cal/Mol-Kelvin
 Total                  258.009             88.500            174.770
 Electronic               0.000              0.000              0.000
 Translational            0.889              2.981             42.873
 Rotational               0.889              2.981             35.319
 Vibrational            256.232             82.538             96.578
 Vibration     1          0.593              1.987              8.233
 Vibration     2          0.593              1.987              7.628
 Vibration     3          0.593              1.985              6.224
 Vibration     4          0.594              1.983              5.612
 Vibration     5          0.595              1.979              4.927
 Vibration     6          0.597              1.971              4.306
 Vibration     7          0.597              1.971              4.276
 Vibration     8          0.599              1.964              3.959
 Vibration     9          0.605              1.945              3.356
 Vibration    10          0.607              1.938              3.206
 Vibration    11          0.611              1.925              2.970
 Vibration    12          0.612              1.921              2.918
 Vibration    13          0.619              1.899              2.629
 Vibration    14          0.620              1.896              2.594
 Vibration    15          0.631              1.862              2.289
 Vibration    16          0.641              1.831              2.077
 Vibration    17          0.642              1.828              2.059
 Vibration    18          0.653              1.793              1.869
 Vibration    19          0.666              1.752              1.685
 Vibration    20          0.668              1.746              1.662
 Vibration    21          0.674              1.729              1.600
 Vibration    22          0.676              1.724              1.580
 Vibration    23          0.696              1.662              1.384
 Vibration    24          0.699              1.654              1.360
 Vibration    25          0.713              1.616              1.261
 Vibration    26          0.731              1.565              1.144
 Vibration    27          0.746              1.522              1.057
 Vibration    28          0.760              1.485              0.988
 Vibration    29          0.761              1.483              0.985
 Vibration    30          0.785              1.421              0.884
 Vibration    31          0.800              1.382              0.826
 Vibration    32          0.816              1.343              0.772
 Vibration    33          0.831              1.306              0.724
 Vibration    34          0.870              1.217              0.622
 Vibration    35          0.905              1.141              0.546
 Vibration    36          0.934              1.080              0.490
 Vibration    37          0.957              1.035              0.452

 Optimization completed.
    -- Stationary point found.
 Normal termination of Gaussian 16 at Thu Nov  9 21:55:24 2023.
