 Gaussian 16, Revision B.01,
 Gaussian 16:  EM64L-G16RevB.01 20-Dec-2017

 ---------------------------
 # B3LYP/6-31G(d,p) OPT FREQ
 ---------------------------

 ------
 12poly
 ------
 Symbolic Z-matrix:
 Charge =  0 Multiplicity = 1

 SCF Done:  E(RB3LYP) =  -930.080948526     A.U. after   13 cycles
 SCF Done:  E(RB3LYP) =  -930.103555023     A.U. after   12 cycles
 SCF Done:  E(RB3LYP) =  -930.108247233     A.U. after   13 cycles
 SCF Done:  E(RB3LYP) =  -930.108424176     A.U. after    9 cycles
 SCF Done:  E(RB3LYP) =  -930.108440009     A.U. after    8 cycles
 SCF Done:  E(RB3LYP) =  -930.108440697     A.U. after    7 cycles
 Optimization completed.
    -- Stationary point found.
 Normal termination of Gaussian 16 at Thu Nov  9 22:08:22 2023.

 ----------------------------------------------------------------------
 #N Geom=AllCheck Guess=TCheck SCRF=Check GenChk RB3LYP/6-31G(d,p) Freq
 ----------------------------------------------------------------------

 Structure from the checkpoint file:  "checkpoint.chk"
 ------
 12poly
 ------
 Charge =  0 Multiplicity = 1

                         Standard orientation:
 ---------------------------------------------------------------------
 Center     Atomic      Atomic             Coordinates (Angstroms)
 Number     Number       Type             X           Y           Z
 ---------------------------------------------------------------------
      1          6           0       14.197874   -0.242420   -0.000006
      2          6           0       13.006899    0.381638   -0.000006
      3          6           0       11.727829   -0.291199   -0.000007
      4          6           0       10.528977    0.347838   -0.000007
      5          6           0        9.255089   -0.311440   -0.000007
      6          6           0        8.054511    0.334229   -0.000006
      7          6           0        6.782577   -0.320130   -0.000006
      8          6           0        5.581022    0.328261   -0.000004
      9          6           0        4.310029   -0.323785   -0.000002
     10          6           0        3.107991    0.325947    0.000001
     11          6           0        1.837447   -0.325005    0.000004
     12          6           0        0.635205    0.325294    0.000008
     13          6           0       -0.635205   -0.325332    0.000011
     14          6           0       -1.837447    0.324968    0.000015
     15          6           0       -3.107991   -0.325983    0.000017
     16          6           0       -4.310028    0.323752    0.000019
     17          6           0       -5.581024   -0.328290    0.000018
     18          6           0       -6.782575    0.320109    0.000017
     19          6           0       -8.054515   -0.334240    0.000012
     20          6           0       -9.255086    0.311442    0.000006
     21          6           0      -10.528982   -0.347818   -0.000002
     22          6           0      -11.727824    0.291236   -0.000012
     23          6           0      -13.006905   -0.381581   -0.000023
     24          6           0      -14.197870    0.242496   -0.000035
     25          1           0       15.131087    0.310373   -0.000006
     26          1           0       14.270315   -1.326858   -0.000006
     27          1           0       12.980482    1.471389   -0.000006
     28          1           0       11.743763   -1.381291   -0.000008
     29          1           0       10.520036    1.438398   -0.000006
     30          1           0        9.261133   -1.401696   -0.000008
     31          1           0        8.050553    1.424696   -0.000006
     32          1           0        6.785307   -1.410472   -0.000007
     33          1           0        5.579310    1.418697   -0.000003
     34          1           0        4.311144   -1.414161   -0.000004
     35          1           0        3.107356    1.416366    0.000002
     36          1           0        1.837832   -1.415400    0.000002
     37          1           0        0.634963    1.415702    0.000010
     38          1           0       -0.634963   -1.415739    0.000009
     39          1           0       -1.837831    1.415363    0.000018
     40          1           0       -3.107358   -1.416402    0.000016
     41          1           0       -4.311140    1.414128    0.000021
     42          1           0       -5.579316   -1.418726    0.000019
     43          1           0       -6.785296    1.410450    0.000018
     44          1           0       -8.050567   -1.424707    0.000014
     45          1           0       -9.261116    1.401699    0.000006
     46          1           0      -10.520056   -1.438378   -0.000000
     47          1           0      -11.743742    1.381329   -0.000012
     48          1           0      -12.980505   -1.471332   -0.000020
     49          1           0      -14.270295    1.326934   -0.000037
     50          1           0      -15.131092   -0.310283   -0.000043
 ---------------------------------------------------------------------

 SCF Done:  E(RB3LYP) =  -930.108440697     A.U. after    1 cycles

 The electronic state is 1-A.
 Alpha  occ. eigenvalues --  -10.19499 -10.19493 -10.19487 -10.19480 -10.19473
 Alpha  occ. eigenvalues --  -10.19465 -10.19456 -10.19454 -10.19427 -10.19419
 Alpha  occ. eigenvalues --  -10.19413 -10.19408 -10.19402 -10.19397 -10.19391
 Alpha  occ. eigenvalues --  -10.19389 -10.19374 -10.19374 -10.19347 -10.19347
 Alpha  occ. eigenvalues --  -10.19272 -10.19272 -10.18402 -10.18402  -0.83300
 Alpha  occ. eigenvalues --   -0.82945  -0.82381  -0.81615  -0.80651  -0.79493
 Alpha  occ. eigenvalues --   -0.78144  -0.76612  -0.74907  -0.73048  -0.71074
 Alpha  occ. eigenvalues --   -0.69138  -0.65411  -0.63132  -0.60671  -0.58214
 Alpha  occ. eigenvalues --   -0.56863  -0.56569  -0.56099  -0.56006  -0.55481
 Alpha  occ. eigenvalues --   -0.54890  -0.54495  -0.54338  -0.48896  -0.48860
 Alpha  occ. eigenvalues --   -0.47910  -0.47440  -0.46546  -0.45592  -0.44796
 Alpha  occ. eigenvalues --   -0.43999  -0.42726  -0.42149  -0.40695  -0.40673
 Alpha  occ. eigenvalues --   -0.39275  -0.39031  -0.38055  -0.37784  -0.37116
 Alpha  occ. eigenvalues --   -0.36972  -0.36447  -0.35935  -0.35693  -0.35574
 Alpha  occ. eigenvalues --   -0.35315  -0.35237  -0.35062  -0.34674  -0.34604
 Alpha  occ. eigenvalues --   -0.34504  -0.33499  -0.32226  -0.30688  -0.28887
 Alpha  occ. eigenvalues --   -0.26829  -0.24521  -0.21986  -0.19279  -0.16615
 Alpha virt. eigenvalues --   -0.09175  -0.06299  -0.03225  -0.00216   0.02599
 Alpha virt. eigenvalues --    0.05108   0.07212   0.08308   0.08823   0.08830
 Alpha virt. eigenvalues --    0.09628   0.09930   0.10554   0.10687   0.10817

 Mulliken charges:
               1
     1  C   -0.256223
     2  C   -0.029706
     3  C   -0.077244
     4  C   -0.075307
     5  C   -0.078780
     6  C   -0.076647
     7  C   -0.078327
     8  C   -0.077460
     9  C   -0.078082
    10  C   -0.077706
    11  C   -0.077959
    12  C   -0.077844
    13  C   -0.077844
    14  C   -0.077959
    15  C   -0.077706
    16  C   -0.078082
    17  C   -0.077460
    18  C   -0.078327
    19  C   -0.076647
    20  C   -0.078780
    21  C   -0.075307
    22  C   -0.077244
    23  C   -0.029706
    24  C   -0.256223
    25  H    0.101491
    26  H    0.097218
    27  H    0.081300
    28  H    0.078374
    29  H    0.078255
    30  H    0.078471
    31  H    0.078013
    32  H    0.078166
    33  H    0.077974
    34  H    0.078056
    35  H    0.077973
    36  H    0.078010
    37  H    0.077985
    38  H    0.077985
    39  H    0.078010
    40  H    0.077973
    41  H    0.078056
    42  H    0.077974
    43  H    0.078166
    44  H    0.078013
    45  H    0.078471
    46  H    0.078255
    47  H    0.078374
    48  H    0.081300
    49  H    0.097218
    50  H    0.101491
 Sum of Mulliken charges =  -0.00000

 Dipole moment (field-independent basis, Debye):
    X=             -0.0000    Y=             -0.0000    Z=             -0.0000  Tot=              0.0000
 Quadrupole moment (field-independent basis, Debye-Ang):
   XX=           -134.3828   YY=           -128.1166   ZZ=           -156.5687
   XY=              0.5133   XZ=              0.0000   YZ=              0.0000

  Exact polarizability:2611.702-115.692 217.505   0.001  -0.000  85.576
 Approx polarizability:3847.521-314.729 358.722   0.001  -0.000 131.321

                      1                      2                      3
                      A                      A                      A
 Frequencies --      7.5192                10.1971                20.7270
 Red. masses --      5.6237                 5.4496                 5.5579
 Frc consts  --      0.0002                 0.0003                 0.0014
 IR Inten    --      0.0069                 0.3337                 0.0000

                      4                      5                      6
                      A                      A                      A
 Frequencies --     28.2055                40.0882                54.7581
 Red. masses --      5.2109                 5.2998                 4.9505
 Frc consts  --      0.0024                 0.0050                 0.0087
 IR Inten    --      0.0000                 0.0317                 1.3548

                      7                      8                      9
                      A                      A                      A
 Frequencies --     60.0316                65.6227                89.2123
 Red. masses --      1.5833                 5.2367                 4.6777
 Frc consts  --      0.0034                 0.0133                 0.0219
 IR Inten    --      0.0924                 0.0000                 0.0000

                     10                     11                     12
                      A                      A                      A
 Frequencies --     96.9102               116.8285               121.1157
 Red. masses --      4.8954                 1.8130                 6.0013
 Frc consts  --      0.0271                 0.0146                 0.0519
 IR Inten    --      0.1088                 0.0000                 0.0000

                     13                     14                     15
                      A                      A                      A
 Frequencies --    130.6302               135.0784               163.8431
 Red. masses --      4.4097                 3.4652                 2.9095
 Frc consts  --      0.0443                 0.0373                 0.0460
 IR Inten    --      2.9133                 0.0000                 0.0031

                     16                     17                     18
                      A                      A                      A
 Frequencies --    178.1532               184.3117               205.5109
 Red. masses --      4.1553                 2.0102                 3.4362
 Frc consts  --      0.0777                 0.0402                 0.0855
 IR Inten    --      0.0000                 0.2954                 0.0000

                     19                     20                     21
                      A                      A                      A
 Frequencies --    229.2769               237.4337               238.8908
 Red. masses --      4.0283                 1.8124                 5.5360
 Frc consts  --      0.1248                 0.0602                 0.1861
 IR Inten    --     11.1251                 0.0000                 8.6235

                     22                     23                     24
                      A                      A                      A
 Frequencies --    245.0544               280.6046               286.0384
 Red. masses --      3.4738                 3.3932                 3.6834
 Frc consts  --      0.1229                 0.1574                 0.1776
 IR Inten    --      0.0327                 0.0000                 0.0000

                     25                     26                     27
                      A                      A                      A
 Frequencies --    287.4878               309.6432               332.5059
 Red. masses --      1.8040                 3.2842                 1.8290
 Frc consts  --      0.0878                 0.1855                 0.1191
 IR Inten    --      0.2739                 0.0194                 0.0000

                     28                     29                     30
                      A                      A                      A
 Frequencies --    344.2442               347.0193               370.9174
 Red. masses --      3.4812                 5.3352                 1.9887
 Frc consts  --      0.2431                 0.3785                 0.1612
 IR Inten    --      6.3592                 0.0000                 0.2015

                     31                     32                     33
                      A                      A                      A
 Frequencies --    402.9027               403.6980               426.9696
 Red. masses --      2.2893                 3.3219                 2.8648
 Frc consts  --      0.2190                 0.3190                 0.3077
 IR Inten    --      0.0000                 0.0000                 0.0843

                     34                     35                     36
                      A                      A                      A
 Frequencies --    440.8907               441.0056               466.2433
 Red. masses --      3.8969                 4.2965                 3.4050
 Frc consts  --      0.4463                 0.4923                 0.4361
 IR Inten    --      0.0000                20.4134                 0.7460

                     37                     38                     39
                      A                      A                      A
 Frequencies --    503.7709               534.3623               557.3876
 Red. masses --      3.2292                 4.0487                 3.0877
 Frc consts  --      0.4828                 0.6811                 0.5652
 IR Inten    --      0.0000                 0.0000                 8.9032

                     40                     41                     42
                      A                      A                      A
 Frequencies --    593.6253               599.7453               629.2768
 Red. masses --      3.6335                 3.0757                 3.3002
 Frc consts  --      0.7544                 0.6518                 0.7700
 IR Inten    --      3.7354                 0.0000                 0.0000

                     43                     44                     45
                      A                      A                      A
 Frequencies --    629.6618               662.9001               662.9130
 Red. masses --      3.1442                 1.3717                 1.3723
 Frc consts  --      0.7345                 0.3552                 0.3553
 IR Inten    --      1.3523                 7.0868                 0.0000

                     46                     47                     48
                      A                      A                      A
 Frequencies --    835.9137               846.1584               860.4526
 Red. masses --      1.3365                 1.4572                 1.6063
 Frc consts  --      0.5502                 0.6147                 0.7007
 IR Inten    --      0.1216                 0.0000                 0.6172

                     49                     50                     51
                      A                      A                      A
 Frequencies --    874.3738               886.5895               896.8554
 Red. masses --      1.7570                 1.8829                 1.9656
 Frc consts  --      0.7914                 0.8720                 0.9315
 IR Inten    --      0.0000                 1.7110                 0.0000

                     52                     53                     54
                      A                      A                      A
 Frequencies --    905.1745               911.4603               915.6334
 Red. masses --      1.9820                 1.8907                 1.7224
 Frc consts  --      0.9568                 0.9254                 0.8508
 IR Inten    --      6.7542                 0.0000                31.1300

                     55                     56                     57
                      A                      A                      A
 Frequencies --    918.2668               920.4369               921.3878
 Red. masses --      1.6804                 1.8059                 2.0694
 Frc consts  --      0.8348                 0.9014                 1.0351
 IR Inten    --      0.0000                31.9793                 0.0000

                     58                     59                     60
                      A                      A                      A
 Frequencies --    926.4856               936.4542               948.8566
 Red. masses --      1.1605                 1.1477                 1.1350
 Frc consts  --      0.5869                 0.5930                 0.6021
 IR Inten    --      0.0000                 1.2339                 0.0000

                     61                     62                     63
                      A                      A                      A
 Frequencies --    963.2937               966.9446               966.9459
 Red. masses --      1.1217                 1.4929                 1.4927
 Frc consts  --      0.6132                 0.8224                 0.8223
 IR Inten    --      1.4207                 0.0011                 2.1294

                     64                     65                     66
                      A                      A                      A
 Frequencies --    979.2728               996.1028              1012.8337
 Red. masses --      1.1088                 1.0990                 1.0930
 Frc consts  --      0.6265                 0.6424                 0.6606
 IR Inten    --      0.0000                 1.2661                 0.0000

                     67                     68                     69
                      A                      A                      A
 Frequencies --   1028.3888              1041.7605              1052.1342
 Red. masses --      1.0902                 1.0893                 1.0892
 Frc consts  --      0.6793                 0.6965                 0.7104
 IR Inten    --      1.0362                 0.0000                 0.8990

                     70                     71                     72
                      A                      A                      A
 Frequencies --   1058.8724              1061.3086              1162.6691
 Red. masses --      1.0893                 1.0871                 2.6879
 Frc consts  --      0.7196                 0.7214                 2.1408
 IR Inten    --      0.0000               273.5586                 0.1340

                     73                     74                     75
                      A                      A                      A
 Frequencies --   1165.3442              1167.0117              1171.1486
 Red. masses --      2.4350                 2.7281                 1.8787
 Frc consts  --      1.9483                 2.1891                 1.5182
 IR Inten    --      0.0000                 0.0000                 0.0000

                     76                     77                     78
                      A                      A                      A
 Frequencies --   1176.1584              1180.6515              1190.9574
 Red. masses --      1.7835                 3.9154                 1.4704
 Frc consts  --      1.4537                 3.2157                 1.2288
 IR Inten    --      1.2786                 1.2163                 0.0000

                     79                     80                     81
                      A                      A                      A
 Frequencies --   1194.4046              1201.3723              1215.4568
 Red. masses --      1.3804                 3.7243                 1.3034
 Frc consts  --      1.1603                 3.1670                 1.1345
 IR Inten    --     95.3904                 0.0000                64.7401

                     82                     83                     84
                      A                      A                      A
 Frequencies --   1220.9368              1234.4595              1236.0788
 Red. masses --      3.0453                 1.3497                 2.5070
 Frc consts  --      2.6747                 1.2119                 2.2568
 IR Inten    --      1.0287                 0.0000                 0.0000

                     85                     86                     87
                      A                      A                      A
 Frequencies --   1251.3125              1267.3594              1283.2208
 Red. masses --      1.3038                 1.2652                 1.2434
 Frc consts  --      1.2028                 1.1973                 1.2063
 IR Inten    --     36.4878                 0.0000                13.0090

                     88                     89                     90
                      A                      A                      A
 Frequencies --   1299.9069              1315.3619              1320.3701
 Red. masses --      1.2543                 1.3634                 1.7452
 Frc consts  --      1.2488                 1.3899                 1.7926
 IR Inten    --      0.0000                22.9371                 0.0538

                     91                     92                     93
                      A                      A                      A
 Frequencies --   1320.5327              1321.3502              1323.9030
 Red. masses --      1.6736                 1.6624                 1.4936
 Frc consts  --      1.7195                 1.7101                 1.5424
 IR Inten    --      0.0000                 0.0000                 0.0000

                     94                     95                     96
                      A                      A                      A
 Frequencies --   1324.3341              1327.0407              1327.7687
 Red. masses --      2.2043                 1.3662                 1.3861
 Frc consts  --      2.2779                 1.4175                 1.4397
 IR Inten    --    148.8269                10.6824                16.0277

                     97                     98                     99
                      A                      A                      A
 Frequencies --   1328.1158              1331.1116              1333.5524
 Red. masses --      2.7995                 1.3475                 1.3466
 Frc consts  --      2.9094                 1.4068                 1.4110
 IR Inten    --      0.0000                 0.0000                 0.1626

                    100                    101                    102
                      A                      A                      A
 Frequencies --   1335.0448              1338.4896              1355.4051
 Red. masses --      1.3172                 1.2909                 1.3651
 Frc consts  --      1.3833                 1.3626                 1.4775
 IR Inten    --      0.0000                 2.2242                 0.0000

                    103                    104                    105
                      A                      A                      A
 Frequencies --   1387.2075              1422.2119              1466.1640
 Red. masses --      1.5446                 1.7340                 1.3114
 Frc consts  --      1.7512                 2.0665                 1.6609
 IR Inten    --      1.6220                 0.0000                 5.2623

                    106                    107                    108
                      A                      A                      A
 Frequencies --   1467.9061              1565.2828              1588.4067
 Red. masses --      1.3297                 2.7362                 4.7792
 Frc consts  --      1.6881                 3.9499                 7.1045
 IR Inten    --      0.0000                 0.0000                 0.3983

                    109                    110                    111
                      A                      A                      A
 Frequencies --   1615.0914              1620.7510              1640.2048
 Red. masses --      4.5884                 3.5243                 4.5054
 Frc consts  --      7.0519                 5.4545                 7.1414
 IR Inten    --      0.0000                 0.6834                 5.0199

                    112                    113                    114
                      A                      A                      A
 Frequencies --   1658.9909              1661.8012              1678.8102
 Red. masses --      4.1100                 4.5452                 4.6340
 Frc consts  --      6.6648                 7.3954                 7.6951
 IR Inten    --      0.0000                 0.0000                 9.7486

                    115                    116                    117
                      A                      A                      A
 Frequencies --   1682.0562              1688.8610              1699.1459
 Red. masses --      4.5574                 4.8037                 4.4572
 Frc consts  --      7.5971                 8.0726                 7.5818
 IR Inten    --      2.3418                 0.0000                 0.0000

                    118                    119                    120
                      A                      A                      A
 Frequencies --   1699.9188              3137.5207              3137.6281
 Red. masses --      4.5255                 1.0885                 1.0884
 Frc consts  --      7.7050                 6.3132                 6.3129
 IR Inten    --     31.1445                 0.0000                 1.6748

                    121                    122                    123
                      A                      A                      A
 Frequencies --   3137.7438              3138.0895              3138.2509
 Red. masses --      1.0886                 1.0881                 1.0888
 Frc consts  --      6.3148                 6.3132                 6.3177
 IR Inten    --      2.7216                 0.0000                 0.0000

                    124                    125                    126
                      A                      A                      A
 Frequencies --   3138.9564              3139.7714              3140.4189
 Red. masses --      1.0890                 1.0890                 1.0894
 Frc consts  --      6.3217                 6.3254                 6.3302
 IR Inten    --      5.4848                 0.0000                 0.1408

                    127                    128                    129
                      A                      A                      A
 Frequencies --   3140.8448              3141.0837              3141.8012
 Red. masses --      1.0906                 1.0886                 1.0882
 Frc consts  --      6.3387                 6.3280                 6.3285
 IR Inten    --     26.3255                 0.0000                99.0886

                    130                    131                    132
                      A                      A                      A
 Frequencies --   3141.9993              3142.7818              3144.3361
 Red. masses --      1.0910                 1.0884                 1.0882
 Frc consts  --      6.3457                 6.3338                 6.3390
 IR Inten    --      0.0000                 0.0000                 7.1443

                    133                    134                    135
                      A                      A                      A
 Frequencies --   3146.1527              3147.9796              3149.7327
 Red. masses --      1.0877                 1.0870                 1.0863
 Frc consts  --      6.3431                 6.3466                 6.3495
 IR Inten    --      0.0000                 2.0408                 0.0000

                    136                    137                    138
                      A                      A                      A
 Frequencies --   3151.3352              3152.7391              3153.8972
 Red. masses --      1.0856                 1.0851                 1.0848
 Frc consts  --      6.3522                 6.3548                 6.3579
 IR Inten    --      2.3754                 0.0000                 7.6266

                    139                    140                    141
                      A                      A                      A
 Frequencies --   3154.7309              3154.9884              3158.7147
 Red. masses --      1.0849                 1.0850                 1.0668
 Frc consts  --      6.3614                 6.3629                 6.2710
 IR Inten    --      0.0000               527.9434                37.2336

                    142                    143                    144
                      A                      A                      A
 Frequencies --   3158.7268              3247.9308              3247.9314
 Red. masses --      1.0668                 1.1158                 1.1158
 Frc consts  --      6.2715                 6.9350                 6.9350
 IR Inten    --      0.0000                27.5134                 3.9228

 - Thermochemistry -
 -------------------
 Temperature   298.150 Kelvin.  Pressure   1.00000 Atm.
 Atom     1 has atomic number  6 and mass  12.00000

 Molecular mass:   314.20345 amu.
 Principal axes and moments of inertia in atomic units:
                           1         2         3
     Eigenvalues --   280.08839********************
           X            1.00000  -0.00024   0.00000
           Y            0.00024   1.00000   0.00000
           Z           -0.00000  -0.00000   1.00000
 This molecule is an asymmetric top.
 Rotational symmetry number  1.
 Rotational temperatures (Kelvin)      0.30924     0.00104     0.00104
 Rotational constants (GHZ):           6.44347     0.02166     0.02159
 Zero-point vibrational energy    1103885.8 (Joules/Mol)
                                  263.83504 (Kcal/Mol)
 Warning -- explicit consideration of  41 degrees of freedom as
           vibrations may cause significant error
 Vibrational temperatures:     10.82    14.67    29.82    40.58    57.68
          (Kelvin)             78.78    86.37    94.42   128.36   139.43
                              168.09   174.26   187.95   194.35   235.73
                              256.32   265.18   295.68   329.88   341.61
                              343.71   352.58   403.73   411.55   413.63
                              445.51   478.40   495.29   499.28   533.67
                              579.69   580.83   614.31   634.34   634.51
                              670.82   724.81   768.83   801.96   854.09
                              862.90   905.39   905.94   953.77   953.78
                             1202.69  1217.43  1238.00  1258.03  1275.60
                             1290.37  1302.34  1311.39  1317.39  1321.18
                             1324.30  1325.67  1333.01  1347.35  1365.19
                             1385.96  1391.22  1391.22  1408.96  1433.17
                             1457.24  1479.62  1498.86  1513.79  1523.48
                             1526.99  1672.82  1676.67  1679.07  1685.02
                             1692.23  1698.69  1713.52  1718.48  1728.51
                             1748.77  1756.66  1776.11  1778.44  1800.36
                             1823.45  1846.27  1870.28  1892.51  1899.72
                             1899.95  1901.13  1904.80  1905.42  1909.32
                             1910.36  1910.86  1915.17  1918.68  1920.83
                             1925.79  1950.13  1995.88  2046.25  2109.48
                             2111.99  2252.09  2285.36  2323.76  2331.90
                             2359.89  2386.92  2390.96  2415.43  2420.10
                             2429.89  2444.69  2445.80  4514.19  4514.35
                             4514.51  4515.01  4515.24  4516.26  4517.43
                             4518.36  4518.98  4519.32  4520.35  4520.64
                             4521.76  4524.00  4526.61  4529.24  4531.76
                             4534.07  4536.09  4537.75  4538.95  4539.32
                             4544.69  4544.70  4673.05  4673.05

 Zero-point correction=                           0.420448 (Hartree/Particle)
 Thermal correction to Energy=                    0.446838
 Thermal correction to Enthalpy=                  0.447783
 Thermal correction to Gibbs Free Energy=         0.359095
 Sum of electronic and zero-point Energies=           -929.687993
 Sum of electronic and thermal Energies=              -929.661602
 Sum of electronic and thermal Enthalpies=            -929.660658
 Sum of electronic and thermal Free Energies=         -929.749346

                     E (Thermal)             CV                S
                      KCal/Mol        Cal/Mol-Kelvin    Cal/Mol-Kelvin
 Total                  280.395             96.573            186.659
 Electronic               0.000              0.000              0.000
 Translational            0.889              2.981             43.131
 Rotational               0.889              2.981             35.921
 Vibrational            278.618             90.611            107.607
 Vibration     1          0.593              1.987              8.578
 Vibration     2          0.593              1.987              7.972
 Vibration     3          0.593              1.986              6.563
 Vibration     4          0.593              1.984              5.952
 Vibration     5          0.594              1.981              5.255
 Vibration     6          0.596              1.976              4.638
 Vibration     7          0.597              1.973              4.456
 Vibration     8          0.597              1.971              4.281
 Vibration     9          0.602              1.957              3.677
 Vibration    10          0.603              1.951              3.516
 Vibration    11          0.608              1.935              3.152
 Vibration    12          0.609              1.932              3.082
 Vibration    13          0.612              1.923              2.937
 Vibration    14          0.613              1.918              2.872
 Vibration    15          0.623              1.887              2.505
 Vibration    16          0.629              1.869              2.348
 Vibration    17          0.631              1.861              2.284
 Vibration    18          0.640              1.832              2.083
 Vibration    19          0.652              1.796              1.885
 Vibration    20          0.656              1.783              1.822
 Vibration    21          0.657              1.781              1.811
 Vibration    22          0.660              1.771              1.766
 Vibration    23          0.680              1.709              1.530
 Vibration    24          0.684              1.700              1.497
 Vibration    25          0.685              1.697              1.489
 Vibration    26          0.699              1.655              1.364
 Vibration    27          0.714              1.611              1.248
 Vibration    28          0.723              1.587              1.192
 Vibration    29          0.725              1.581              1.180
 Vibration    30          0.743              1.532              1.076
 Vibration    31          0.768              1.464              0.952
 Vibration    32          0.769              1.462              0.949
 Vibration    33          0.789              1.412              0.869
 Vibration    34          0.801              1.381              0.824
 Vibration    35          0.801              1.381              0.823
 Vibration    36          0.824              1.325              0.748
 Vibration    37          0.859              1.242              0.649
 Vibration    38          0.889              1.174              0.578
 Vibration    39          0.913              1.124              0.529
 Vibration    40          0.951              1.045              0.461
 Vibration    41          0.958              1.032              0.450

 Optimization completed.
    -- Stationary point found.
 Normal termination of Gaussian 16 at Thu Nov  9 22:46:02 2023.
