 Gaussian 16, Revision B.01,
 Gaussian 16:  EM64L-G16RevB.01 20-Dec-2017

 ---------------------------
 # B3LYP/6-31G(d,p) OPT FREQ
 ---------------------------

 ------
 12poly
 ------
 Symbolic Z-matrix:
 Charge =  0 Multiplicity = 1

 SCF Done:  E(RB3LYP) =  -930.056961705     A.U. after   13 cycles
 SCF Done:  E(RB3LYP) =  -930.075869781     A.U. after   13 cycles
 SCF Done:  E(RB3LYP) =  -930.079145547     A.U. after   13 cycles
 SCF Done:  E(RB3LYP) =  -930.079311102     A.U. after   10 cycles
 SCF Done:  E(RB3LYP) =  -930.079328593     A.U. after    9 cycles
 SCF Done:  E(RB3LYP) =  -930.079329083     A.U. after    7 cycles
 SCF Done:  E(RB3LYP) =  -930.079329106     A.U. after    6 cycles
 SCF Done:  E(RB3LYP) =  -930.079329126     A.U. after    7 cycles
 SCF Done:  E(RB3LYP) =  -930.079329253     A.U. after    8 cycles
 SCF Done:  E(RB3LYP) =  -930.021028240     A.U. after   15 cycles
 SCF Done:  E(RB3LYP) =  -930.079786006     A.U. after   14 cycles
 SCF Done:  E(RB3LYP) =  -930.079798274     A.U. after    9 cycles
 SCF Done:  E(RB3LYP) =  -930.079805155     A.U. after   10 cycles
 SCF Done:  E(RB3LYP) =  -930.079806162     A.U. after    8 cycles
 SCF Done:  E(RB3LYP) =  -930.079806635     A.U. after    7 cycles
 SCF Done:  E(RB3LYP) =  -930.079806704     A.U. after    7 cycles
 SCF Done:  E(RB3LYP) =  -930.079806731     A.U. after    7 cycles
 SCF Done:  E(RB3LYP) =  -930.079806735     A.U. after    7 cycles
 SCF Done:  E(RB3LYP) =  -930.079806734     A.U. after    6 cycles
 Optimization completed.
    -- Stationary point found.
 Normal termination of Gaussian 16 at Sat Oct 28 16:25:24 2023.

 ----------------------------------------------------------------------
 #N Geom=AllCheck Guess=TCheck SCRF=Check GenChk RB3LYP/6-31G(d,p) Freq
 ----------------------------------------------------------------------

 Structure from the checkpoint file:  "./chk/12.chk"
 ------
 12poly
 ------
 Charge =  0 Multiplicity = 1

                         Standard orientation:
 ---------------------------------------------------------------------
 Center     Atomic      Atomic             Coordinates (Angstroms)
 Number     Number       Type             X           Y           Z
 ---------------------------------------------------------------------
      1          6           0      -12.870245   -1.444592   -0.438751
      2          6           0      -12.156831   -0.956494    0.589816
      3          6           0      -10.737925   -0.620866    0.586894
      4          6           0       -9.810314   -1.103693   -0.278884
      5          6           0       -8.410981   -0.743189   -0.338556
      6          6           0       -7.836325    0.359579    0.219834
      7          6           0       -6.435257    0.698613    0.219808
      8          6           0       -5.396459   -0.132072   -0.089900
      9          6           0       -3.999754    0.210457   -0.146019
     10          6           0       -3.461693    1.466627   -0.118087
     11          6           0       -2.066269    1.811490   -0.134862
     12          6           0       -0.995259    0.963896   -0.065196
     13          6           0        0.363396    1.396325   -0.106247
     14          6           0        1.444032    0.561219   -0.034250
     15          6           0        2.803072    0.994258   -0.075377
     16          6           0        3.883338    0.159871   -0.004820
     17          6           0        5.243314    0.593780   -0.045933
     18          6           0        6.323001   -0.239320    0.024620
     19          6           0        7.684552    0.196435   -0.016829
     20          6           0        8.763457   -0.633993    0.053455
     21          6           0       10.127934   -0.193976    0.011558
     22          6           0       11.206025   -1.017759    0.081247
     23          6           0       12.577975   -0.565478    0.038234
     24          6           0       13.650607   -1.373389    0.106523
     25          1           0      -12.433552   -1.604304   -1.420390
     26          1           0      -12.677026   -0.770575    1.529083
     27          1           0      -10.409858    0.051153    1.378092
     28          1           0      -10.129521   -1.863765   -0.990602
     29          1           0       -7.778407   -1.416403   -0.914434
     30          1           0       -8.491955    1.086449    0.696487
     31          1           0       -6.203165    1.717572    0.524201
     32          1           0       -5.626311   -1.176318   -0.293966
     33          1           0       -3.320064   -0.634815   -0.237606
     34          1           0       -4.146368    2.312367   -0.100369
     35          1           0       -1.847154    2.876209   -0.207889
     36          1           0       -1.164464   -0.107598    0.034176
     37          1           0        0.541055    2.468008   -0.201425
     38          1           0        1.266508   -0.510446    0.060161
     39          1           0        2.980511    2.065984   -0.169755
     40          1           0        3.706405   -0.911906    0.089431
     41          1           0        5.419725    1.665689   -0.140331
     42          1           0        6.147514   -1.311288    0.119064
     43          1           0        7.858923    1.268706   -0.111331
     44          1           0        8.591079   -1.706387    0.147973
     45          1           0       10.297578    0.879169   -0.083030
     46          1           0       11.043275   -2.091582    0.175874
     47          1           0       12.730410    0.509709   -0.056479
     48          1           0       13.544347   -2.450867    0.201334
     49          1           0       14.661767   -0.982667    0.069775
     50          1           0      -13.921602   -1.688472   -0.327709
 ---------------------------------------------------------------------

 SCF Done:  E(RB3LYP) =  -930.079806734     A.U. after    1 cycles

 The electronic state is 1-A.
 Alpha  occ. eigenvalues --  -10.19547 -10.19536 -10.19523 -10.19503 -10.19492
 Alpha  occ. eigenvalues --  -10.19475 -10.19459 -10.19449 -10.19440 -10.19423
 Alpha  occ. eigenvalues --  -10.19420 -10.19408 -10.19383 -10.19369 -10.19339
 Alpha  occ. eigenvalues --  -10.19317 -10.19313 -10.19292 -10.19277 -10.19236
 Alpha  occ. eigenvalues --  -10.19208 -10.19127 -10.18442 -10.18309  -0.83280
 Alpha  occ. eigenvalues --   -0.82831  -0.82268  -0.81452  -0.80459  -0.79246
 Alpha  occ. eigenvalues --   -0.77849  -0.76273  -0.74524  -0.72646  -0.70687
 Alpha  occ. eigenvalues --   -0.68510  -0.66001  -0.63692  -0.61826  -0.59693
 Alpha  occ. eigenvalues --   -0.58191  -0.56725  -0.56090  -0.55903  -0.55134
 Alpha  occ. eigenvalues --   -0.54701  -0.52669  -0.50533  -0.49874  -0.48690
 Alpha  occ. eigenvalues --   -0.48305  -0.47270  -0.46554  -0.45699  -0.44756
 Alpha  occ. eigenvalues --   -0.44045  -0.43196  -0.42181  -0.41632  -0.40791
 Alpha  occ. eigenvalues --   -0.39884  -0.38953  -0.38081  -0.37536  -0.37134
 Alpha  occ. eigenvalues --   -0.36734  -0.36017  -0.35686  -0.35632  -0.35410
 Alpha  occ. eigenvalues --   -0.35186  -0.35003  -0.34766  -0.34676  -0.34299
 Alpha  occ. eigenvalues --   -0.33457  -0.32983  -0.31823  -0.30311  -0.28555
 Alpha  occ. eigenvalues --   -0.26554  -0.24337  -0.21896  -0.19313  -0.16647
 Alpha virt. eigenvalues --   -0.09482  -0.06634  -0.03712  -0.00858   0.01942
 Alpha virt. eigenvalues --    0.04405   0.06825   0.08125   0.08461   0.08804
 Alpha virt. eigenvalues --    0.09687   0.09992   0.10695   0.10741   0.11391

 Mulliken charges:
               1
     1  C   -0.239763
     2  C   -0.050287
     3  C   -0.083615
     4  C   -0.080315
     5  C   -0.083591
     6  C   -0.082103
     7  C   -0.082099
     8  C   -0.081722
     9  C   -0.082122
    10  C   -0.079127
    11  C   -0.104699
    12  C   -0.054593
    13  C   -0.076281
    14  C   -0.080701
    15  C   -0.077278
    16  C   -0.077729
    17  C   -0.077554
    18  C   -0.078174
    19  C   -0.076660
    20  C   -0.078632
    21  C   -0.075337
    22  C   -0.077102
    23  C   -0.029759
    24  C   -0.256053
    25  H    0.098746
    26  H    0.085590
    27  H    0.083664
    28  H    0.082569
    29  H    0.082418
    30  H    0.082474
    31  H    0.081523
    32  H    0.081970
    33  H    0.080239
    34  H    0.081608
    35  H    0.080217
    36  H    0.079542
    37  H    0.078420
    38  H    0.078273
    39  H    0.078237
    40  H    0.078291
    41  H    0.078199
    42  H    0.078397
    43  H    0.078196
    44  H    0.078675
    45  H    0.078417
    46  H    0.078556
    47  H    0.081451
    48  H    0.097377
    49  H    0.101679
    50  H    0.100569
 Sum of Mulliken charges =  -0.00000

 Dipole moment (field-independent basis, Debye):
    X=              0.2383    Y=              0.0896    Z=              0.0490  Tot=              0.2593
 Quadrupole moment (field-independent basis, Debye-Ang):
   XX=           -133.4597   YY=           -132.2461   ZZ=           -151.5296
   XY=              1.0037   XZ=             -1.7781   YZ=              2.0594

  Exact polarizability:2317.058 -61.483 241.863   8.976   8.761 112.120
 Approx polarizability:3364.912-192.607 433.627  18.336  15.612 178.648

                      1                      2                      3
                      A                      A                      A
 Frequencies --     11.0725                12.5387                20.9614
 Red. masses --      5.3448                 2.8827                 3.9826
 Frc consts  --      0.0004                 0.0003                 0.0010
 IR Inten    --      0.1402                 0.0215                 0.0158

                      4                      5                      6
                      A                      A                      A
 Frequencies --     26.5032                30.9662                44.5557
 Red. masses --      2.6087                 3.9396                 4.4937
 Frc consts  --      0.0011                 0.0022                 0.0053
 IR Inten    --      0.1304                 0.4176                 0.0447

                      7                      8                      9
                      A                      A                      A
 Frequencies --     51.5244                53.7085                69.1038
 Red. masses --      4.3043                 2.8322                 3.2168
 Frc consts  --      0.0067                 0.0048                 0.0091
 IR Inten    --      0.1571                 0.0036                 0.0522

                     10                     11                     12
                      A                      A                      A
 Frequencies --     76.2275                92.4528               101.7833
 Red. masses --      4.1601                 4.4177                 3.5884
 Frc consts  --      0.0142                 0.0222                 0.0219
 IR Inten    --      0.0197                 0.1200                 0.1086

                     13                     14                     15
                      A                      A                      A
 Frequencies --    120.2625               136.3592               151.0022
 Red. masses --      3.9598                 2.1990                 3.4213
 Frc consts  --      0.0337                 0.0241                 0.0460
 IR Inten    --      0.2819                 0.8798                 2.5590

                     16                     17                     18
                      A                      A                      A
 Frequencies --    163.7700               187.0065               203.0657
 Red. masses --      3.6272                 3.4600                 4.5717
 Frc consts  --      0.0573                 0.0713                 0.1111
 IR Inten    --      0.5634                 0.2260                 5.1617

                     19                     20                     21
                      A                      A                      A
 Frequencies --    210.7026               220.4418               230.6982
 Red. masses --      1.9431                 1.9557                 2.8452
 Frc consts  --      0.0508                 0.0560                 0.0892
 IR Inten    --      1.7004                 0.2280                 0.2197

                     22                     23                     24
                      A                      A                      A
 Frequencies --    241.4977               255.2185               268.2796
 Red. masses --      3.2003                 3.6466                 1.7334
 Frc consts  --      0.1100                 0.1399                 0.0735
 IR Inten    --      0.1355                 3.9482                 1.0258

                     25                     26                     27
                      A                      A                      A
 Frequencies --    280.0350               300.7524               310.9138
 Red. masses --      2.6326                 2.5823                 2.0398
 Frc consts  --      0.1216                 0.1376                 0.1162
 IR Inten    --      0.4309                 0.1317                 0.3365

                     28                     29                     30
                      A                      A                      A
 Frequencies --    319.1098               360.1214               377.5867
 Red. masses --      3.7404                 2.5785                 4.0964
 Frc consts  --      0.2244                 0.1970                 0.3441
 IR Inten    --     18.8894                 0.9415                 5.9607

                     31                     32                     33
                      A                      A                      A
 Frequencies --    381.1653               414.1306               415.4311
 Red. masses --      2.5838                 3.2134                 3.3910
 Frc consts  --      0.2212                 0.3247                 0.3448
 IR Inten    --      2.2529                 1.1956                 2.5030

                     34                     35                     36
                      A                      A                      A
 Frequencies --    429.9266               446.9790               493.1194
 Red. masses --      3.5739                 4.1201                 3.5535
 Frc consts  --      0.3892                 0.4850                 0.5091
 IR Inten    --      0.9601               207.3682                 0.5349

                     37                     38                     39
                      A                      A                      A
 Frequencies --    509.2614               540.9592               585.7052
 Red. masses --      3.5723                 3.5730                 3.1864
 Frc consts  --      0.5459                 0.6160                 0.6440
 IR Inten    --     15.5586                 4.4571                 8.4367

                     40                     41                     42
                      A                      A                      A
 Frequencies --    609.6649               619.3394               642.8875
 Red. masses --      3.3506                 2.8848                 1.7628
 Frc consts  --      0.7338                 0.6520                 0.4293
 IR Inten    --      0.3828                23.9663                 9.1395

                     43                     44                     45
                      A                      A                      A
 Frequencies --    662.8001               717.2721               804.8327
 Red. masses --      1.3716                 3.8604                 1.6414
 Frc consts  --      0.3550                 1.1702                 0.6264
 IR Inten    --      3.5582                 1.7090                 1.6934

                     46                     47                     48
                      A                      A                      A
 Frequencies --    811.1559               831.1656               847.1139
 Red. masses --      3.8450                 1.5804                 1.5490
 Frc consts  --      1.4906                 0.6433                 0.6549
 IR Inten    --      0.3108                 1.9345                 0.5456

                     49                     50                     51
                      A                      A                      A
 Frequencies --    864.5970               878.8068               893.1554
 Red. masses --      1.7549                 1.8705                 1.9476
 Frc consts  --      0.7729                 0.8511                 0.9154
 IR Inten    --      1.1274                 0.5113                 1.2984

                     52                     53                     54
                      A                      A                      A
 Frequencies --    902.2598               910.7275               916.4404
 Red. masses --      1.9984                 1.9663                 1.7575
 Frc consts  --      0.9585                 0.9609                 0.8697
 IR Inten    --      4.0871                 2.7470                13.5044

                     55                     56                     57
                      A                      A                      A
 Frequencies --    919.4347               920.9797               921.4000
 Red. masses --      1.7573                 1.6900                 1.6672
 Frc consts  --      0.8753                 0.8446                 0.8339
 IR Inten    --     11.8944                24.2229                18.7229

                     58                     59                     60
                      A                      A                      A
 Frequencies --    931.3624               949.9659               955.3143
 Red. masses --      1.1853                 1.1409                 2.5909
 Frc consts  --      0.6058                 0.6066                 1.3931
 IR Inten    --      0.3207                 6.9314                17.4033

                     61                     62                     63
                      A                      A                      A
 Frequencies --    966.9449               973.2807               986.2325
 Red. masses --      1.4927                 1.1084                 1.1297
 Frc consts  --      0.8223                 0.6186                 0.6474
 IR Inten    --      1.1844                11.1716                69.3524

                     64                     65                     66
                      A                      A                      A
 Frequencies --    991.9048               999.8501              1004.6309
 Red. masses --      1.8428                 1.1229                 1.2207
 Frc consts  --      1.0682                 0.6614                 0.7259
 IR Inten    --      2.9349                 8.2763                 1.4277

                     67                     68                     69
                      A                      A                      A
 Frequencies --   1006.0799              1012.4225              1029.1849
 Red. masses --      1.1229                 1.2846                 1.1338
 Frc consts  --      0.6697                 0.7758                 0.7076
 IR Inten    --      1.6897                 7.2545                 2.5708

                     70                     71                     72
                      A                      A                      A
 Frequencies --   1030.1301              1037.8727              1048.9985
 Red. masses --      1.1839                 1.7010                 1.0896
 Frc consts  --      0.7402                 1.0796                 0.7064
 IR Inten    --      5.7211                18.8671                16.9596

                     73                     74                     75
                      A                      A                      A
 Frequencies --   1059.9137              1077.0030              1133.7710
 Red. masses --      1.0884                 1.7472                 1.7751
 Frc consts  --      0.7204                 1.1941                 1.3444
 IR Inten    --    135.5694                 9.0738                 5.3962

                     76                     77                     78
                      A                      A                      A
 Frequencies --   1166.0886              1172.7839              1180.7759
 Red. masses --      2.4350                 2.1161                 2.3439
 Frc consts  --      1.9508                 1.7148                 1.9254
 IR Inten    --      0.1857                 1.1810                 0.1481

                     79                     80                     81
                      A                      A                      A
 Frequencies --   1187.7200              1192.4902              1210.8447
 Red. masses --      1.8113                 1.4969                 2.1268
 Frc consts  --      1.5055                 1.2542                 1.8372
 IR Inten    --      3.3249                35.8033                 1.0549

                     82                     83                     84
                      A                      A                      A
 Frequencies --   1225.1761              1236.4812              1253.6963
 Red. masses --      1.5780                 1.7147                 1.4784
 Frc consts  --      1.3956                 1.5446                 1.3691
 IR Inten    --      9.2248                30.5295                13.9823

                     85                     86                     87
                      A                      A                      A
 Frequencies --   1276.0959              1301.0164              1302.7840
 Red. masses --      1.3360                 1.4164                 1.4690
 Frc consts  --      1.2818                 1.4125                 1.4690
 IR Inten    --      0.5462                 0.4630                15.1784

                     88                     89                     90
                      A                      A                      A
 Frequencies --   1309.7946              1320.0904              1322.2113
 Red. masses --      1.3616                 1.6541                 1.5247
 Frc consts  --      1.3763                 1.6983                 1.5705
 IR Inten    --      2.3894                13.5108                 2.4047

                     91                     92                     93
                      A                      A                      A
 Frequencies --   1323.8641              1325.8114              1327.0284
 Red. masses --      1.6974                 1.4035                 1.8373
 Frc consts  --      1.7527                 1.4535                 1.9063
 IR Inten    --     24.0771                11.2627                40.0025

                     94                     95                     96
                      A                      A                      A
 Frequencies --   1331.4355              1334.6191              1336.2408
 Red. masses --      1.3715                 1.4147                 1.4507
 Frc consts  --      1.4325                 1.4847                 1.5262
 IR Inten    --      0.1814                 1.3743                 3.2917

                     97                     98                     99
                      A                      A                      A
 Frequencies --   1338.1360              1342.6566              1356.6041
 Red. masses --      1.6682                 1.4075                 1.4179
 Frc consts  --      1.7599                 1.4949                 1.5375
 IR Inten    --      2.6426                 1.1204                 6.2242

                    100                    101                    102
                      A                      A                      A
 Frequencies --   1364.6059              1366.7208              1380.2501
 Red. masses --      1.5445                 1.4025                 1.5559
 Frc consts  --      1.6945                 1.5435                 1.7465
 IR Inten    --     14.6526                22.3887                11.4583

                    103                    104                    105
                      A                      A                      A
 Frequencies --   1383.2625              1417.8259              1464.0275
 Red. masses --      1.5446                 1.7076                 1.2550
 Frc consts  --      1.7413                 2.0225                 1.5848
 IR Inten    --     11.3299                 5.0739                 9.8486

                    106                    107                    108
                      A                      A                      A
 Frequencies --   1467.1079              1529.2803              1594.3263
 Red. masses --      1.3213                 2.3313                 3.3957
 Frc consts  --      1.6756                 3.2123                 5.0855
 IR Inten    --      1.4260               102.3801                 3.8987

                    109                    110                    111
                      A                      A                      A
 Frequencies --   1600.6693              1628.2091              1642.0620
 Red. masses --      4.6150                 4.1067                 4.3849
 Frc consts  --      6.9667                 6.4146                 6.9661
 IR Inten    --      0.0151                 2.2960                 9.4802

                    112                    113                    114
                      A                      A                      A
 Frequencies --   1659.2863              1671.6908              1674.2030
 Red. masses --      4.3121                 4.4924                 4.1857
 Frc consts  --      6.9948                 7.3968                 6.9126
 IR Inten    --     13.5983                 0.4751                 0.3625

                    115                    116                    117
                      A                      A                      A
 Frequencies --   1679.9972              1686.7742              1697.4941
 Red. masses --      3.8926                 4.5567                 3.7511
 Frc consts  --      6.4730                 7.6387                 6.3684
 IR Inten    --      2.8241                 2.7830                 3.8758

                    118                    119                    120
                      A                      A                      A
 Frequencies --   1699.1653              3137.8413              3138.2157
 Red. masses --      4.4710                 1.0884                 1.0886
 Frc consts  --      7.6055                 6.3141                 6.3168
 IR Inten    --     15.8353                 1.7742                 0.1577

                    121                    122                    123
                      A                      A                      A
 Frequencies --   3139.2269              3139.7574              3140.7519
 Red. masses --      1.0888                 1.0894                 1.0877
 Frc consts  --      6.3219                 6.3276                 6.3216
 IR Inten    --      4.7843                 2.2533                 6.8932

                    124                    125                    126
                      A                      A                      A
 Frequencies --   3141.1403              3141.7716              3142.6610
 Red. masses --      1.0881                 1.0893                 1.0871
 Frc consts  --      6.3254                 6.3352                 6.3261
 IR Inten    --      6.2175                66.7027                 5.2989

                    127                    128                    129
                      A                      A                      A
 Frequencies --   3143.2443              3146.0221              3146.5234
 Red. masses --      1.0881                 1.0855                 1.0874
 Frc consts  --      6.3340                 6.3297                 6.3432
 IR Inten    --     13.0547                94.8013                 5.4000

                    130                    131                    132
                      A                      A                      A
 Frequencies --   3149.8650              3150.8840              3152.4007
 Red. masses --      1.0863                 1.0856                 1.0850
 Frc consts  --      6.3499                 6.3500                 6.3527
 IR Inten    --      2.1925                13.9922               127.7652

                    133                    134                    135
                      A                      A                      A
 Frequencies --   3153.0683              3154.8360              3158.0404
 Red. masses --      1.0849                 1.0850                 1.0853
 Frc consts  --      6.3546                 6.3623                 6.3771
 IR Inten    --    102.2287               218.3109                31.7988

                    136                    137                    138
                      A                      A                      A
 Frequencies --   3158.7814              3159.7228              3163.6007
 Red. masses --      1.0669                 1.0709                 1.0891
 Frc consts  --      6.2719                 6.2996                 6.4222
 IR Inten    --     17.8066                23.6852                 7.8941

                    139                    140                    141
                      A                      A                      A
 Frequencies --   3164.7423              3167.6992              3167.8814
 Red. masses --      1.0840                 1.0892                 1.0885
 Frc consts  --      6.3969                 6.4396                 6.4359
 IR Inten    --      3.3717                27.7848                19.3484

                    142                    143                    144
                      A                      A                      A
 Frequencies --   3172.7628              3247.1878              3248.0031
 Red. masses --      1.0874                 1.1162                 1.1158
 Frc consts  --      6.4496                 6.9342                 6.9354
 IR Inten    --     77.5153                22.7431                15.8184

 - Thermochemistry -
 -------------------
 Temperature   298.150 Kelvin.  Pressure   1.00000 Atm.
 Atom     1 has atomic number  6 and mass  12.00000

 Molecular mass:   314.20345 amu.
 Principal axes and moments of inertia in atomic units:
                           1         2         3
     Eigenvalues --  1158.83146********************
           X            1.00000   0.00006   0.00019
           Y           -0.00006   0.99992   0.01232
           Z           -0.00019  -0.01232   0.99992
 This molecule is an asymmetric top.
 Rotational symmetry number  1.
 Warning -- assumption of classical behavior for rotation
           may cause significant error
 Rotational temperatures (Kelvin)      0.07474     0.00117     0.00115
 Rotational constants (GHZ):           1.55738     0.02435     0.02403
 Zero-point vibrational energy    1103087.5 (Joules/Mol)
                                  263.64424 (Kcal/Mol)
 Warning -- explicit consideration of  41 degrees of freedom as
           vibrations may cause significant error
 Vibrational temperatures:     15.93    18.04    30.16    38.13    44.55
          (Kelvin)             64.11    74.13    77.27    99.42   109.67
                              133.02   146.44   173.03   196.19   217.26
                              235.63   269.06   292.17   303.15   317.17
                              331.92   347.46   367.20   385.99   402.91
                              432.72   447.34   459.13   518.13   543.26
                              548.41   595.84   597.71   618.57   643.10
                              709.49   732.71   778.32   842.70   877.17
                              891.09   924.97   953.62  1031.99  1157.97
                             1167.07  1195.86  1218.81  1243.96  1264.41
                             1285.05  1298.15  1310.33  1318.55  1322.86
                             1325.08  1325.69  1340.02  1366.79  1374.48
                             1391.22  1400.33  1418.97  1427.13  1438.56
                             1445.44  1447.52  1456.65  1480.77  1482.13
                             1493.27  1509.27  1524.98  1549.57  1631.24
                             1677.74  1687.37  1698.87  1708.86  1715.73
                             1742.14  1762.76  1779.02  1803.79  1836.02
                             1871.87  1874.42  1884.50  1899.32  1902.37
                             1904.75  1907.55  1909.30  1915.64  1920.22
                             1922.55  1925.28  1931.78  1951.85  1963.36
                             1966.41  1985.87  1990.21  2039.94  2106.41
                             2110.84  2200.29  2293.88  2303.01  2342.63
                             2362.56  2387.34  2405.19  2408.80  2417.14
                             2426.89  2442.32  2444.72  4514.65  4515.19
                             4516.65  4517.41  4518.84  4519.40  4520.31
                             4521.59  4522.43  4526.42  4527.15  4531.95
                             4533.42  4535.60  4536.56  4539.11  4543.72
                             4544.78  4546.14  4551.72  4553.36  4557.61
                             4557.87  4564.90  4671.98  4673.15

 Zero-point correction=                           0.420144 (Hartree/Particle)
 Thermal correction to Energy=                    0.446927
 Thermal correction to Enthalpy=                  0.447871
 Thermal correction to Gibbs Free Energy=         0.357017
 Sum of electronic and zero-point Energies=           -929.659663
 Sum of electronic and thermal Energies=              -929.632879
 Sum of electronic and thermal Enthalpies=            -929.631935
 Sum of electronic and thermal Free Energies=         -929.722789

                     E (Thermal)             CV                S
                      KCal/Mol        Cal/Mol-Kelvin    Cal/Mol-Kelvin
 Total                  280.451             96.664            191.218
 Electronic               0.000              0.000              0.000
 Translational            0.889              2.981             43.131
 Rotational               0.889              2.981             37.109
 Vibrational            278.674             90.702            110.978
 Vibration     1          0.593              1.987              7.809
 Vibration     2          0.593              1.987              7.562
 Vibration     3          0.593              1.986              6.541
 Vibration     4          0.593              1.984              6.075
 Vibration     5          0.594              1.984              5.767
 Vibration     6          0.595              1.980              5.045
 Vibration     7          0.596              1.977              4.758
 Vibration     8          0.596              1.976              4.676
 Vibration     9          0.598              1.969              4.179
 Vibration    10          0.599              1.965              3.986
 Vibration    11          0.602              1.955              3.607
 Vibration    12          0.604              1.948              3.420
 Vibration    13          0.609              1.932              3.096
 Vibration    14          0.614              1.917              2.854
 Vibration    15          0.618              1.902              2.660
 Vibration    16          0.623              1.887              2.506
 Vibration    17          0.632              1.858              2.257
 Vibration    18          0.639              1.836              2.105
 Vibration    19          0.643              1.824              2.038
 Vibration    20          0.647              1.810              1.955
 Vibration    21          0.652              1.794              1.874
 Vibration    22          0.658              1.777              1.792
 Vibration    23          0.666              1.754              1.694
 Vibration    24          0.673              1.731              1.607
 Vibration    25          0.680              1.711              1.533
 Vibration    26          0.693              1.672              1.413
 Vibration    27          0.700              1.653              1.357
 Vibration    28          0.705              1.637              1.315
 Vibration    29          0.735              1.554              1.122
 Vibration    30          0.748              1.518              1.049
 Vibration    31          0.751              1.510              1.035
 Vibration    32          0.778              1.440              0.912
 Vibration    33          0.779              1.437              0.908
 Vibration    34          0.791              1.405              0.859
 Vibration    35          0.806              1.368              0.805
 Vibration    36          0.849              1.265              0.676
 Vibration    37          0.864              1.229              0.635
 Vibration    38          0.896              1.160              0.563
 Vibration    39          0.943              1.062              0.475
 Vibration    40          0.969              1.011              0.433
 Vibration    41          0.979              0.991              0.418

 Optimization completed.
    -- Stationary point found.
 Normal termination of Gaussian 16 at Sat Oct 28 18:00:59 2023.
