 Gaussian 16, Revision B.01,
 Gaussian 16:  EM64L-G16RevB.01 20-Dec-2017

 ---------------------------
 # B3LYP/6-31G(d,p) OPT FREQ
 ---------------------------

 ------
 13poly
 ------
 Symbolic Z-matrix:
 Charge =  0 Multiplicity = 1

 SCF Done:  E(RB3LYP) =  -1007.48913344     A.U. after   13 cycles
 SCF Done:  E(RB3LYP) =  -1007.51338196     A.U. after   12 cycles
 SCF Done:  E(RB3LYP) =  -1007.51918601     A.U. after   13 cycles
 SCF Done:  E(RB3LYP) =  -1007.51939517     A.U. after    9 cycles
 SCF Done:  E(RB3LYP) =  -1007.51941461     A.U. after    8 cycles
 SCF Done:  E(RB3LYP) =  -1007.51941552     A.U. after    7 cycles
 Optimization completed.
    -- Stationary point found.
 Normal termination of Gaussian 16 at Thu Nov  9 20:17:46 2023.

 ----------------------------------------------------------------------
 #N Geom=AllCheck Guess=TCheck SCRF=Check GenChk RB3LYP/6-31G(d,p) Freq
 ----------------------------------------------------------------------

 Structure from the checkpoint file:  "checkpoint.chk"
 ------
 13poly
 ------
 Charge =  0 Multiplicity = 1

                         Standard orientation:
 ---------------------------------------------------------------------
 Center     Atomic      Atomic             Coordinates (Angstroms)
 Number     Number       Type             X           Y           Z
 ---------------------------------------------------------------------
      1          6           0      -15.434135    0.242462    0.000004
      2          6           0      -14.243054   -0.381418    0.000002
      3          6           0      -12.964099    0.291587   -0.000001
      4          6           0      -11.765135   -0.347307   -0.000002
      5          6           0      -10.491370    0.312090   -0.000004
      6          6           0       -9.290670   -0.333484   -0.000005
      7          6           0       -8.018877    0.320932   -0.000006
      8          6           0       -6.817183   -0.327428   -0.000006
      9          6           0       -5.546360    0.324585   -0.000006
     10          6           0       -4.344155   -0.325206   -0.000005
     11          6           0       -3.073829    0.325581   -0.000004
     12          6           0       -1.871375   -0.324914   -0.000001
     13          6           0       -0.601265    0.325347    0.000001
     14          6           0        0.601265   -0.325361    0.000004
     15          6           0        1.871375    0.324901    0.000006
     16          6           0        3.073830   -0.325592    0.000009
     17          6           0        4.344154    0.325199    0.000011
     18          6           0        5.546361   -0.324589    0.000012
     19          6           0        6.817182    0.327427    0.000012
     20          6           0        8.018877   -0.320929    0.000011
     21          6           0        9.290669    0.333490    0.000008
     22          6           0       10.491370   -0.312082    0.000004
     23          6           0       11.765135    0.347315   -0.000000
     24          6           0       12.964098   -0.291579   -0.000006
     25          6           0       14.243054    0.381426   -0.000013
     26          6           0       15.434134   -0.242454   -0.000020
     27          1           0      -16.367261   -0.310478    0.000006
     28          1           0      -15.506749    1.326887    0.000004
     29          1           0      -14.216486   -1.471165    0.000002
     30          1           0      -12.980164    1.381677   -0.000001
     31          1           0      -11.756084   -1.437867   -0.000002
     32          1           0      -10.497502    1.402345   -0.000005
     33          1           0       -9.286651   -1.423952   -0.000005
     34          1           0       -8.021638    1.411272   -0.000007
     35          1           0       -6.815476   -1.417866   -0.000006
     36          1           0       -5.547427    1.414960   -0.000008
     37          1           0       -4.343623   -1.415630   -0.000005
     38          1           0       -3.074051    1.415974   -0.000005
     39          1           0       -1.871383   -1.415327   -0.000000
     40          1           0       -0.601163    1.415750   -0.000001
     41          1           0        0.601164   -1.415764    0.000005
     42          1           0        1.871381    1.415314    0.000005
     43          1           0        3.074054   -1.415984    0.000011
     44          1           0        4.343619    1.415622    0.000011
     45          1           0        5.547432   -1.414964    0.000013
     46          1           0        6.815472    1.417866    0.000013
     47          1           0        8.021641   -1.411269    0.000011
     48          1           0        9.286648    1.423958    0.000009
     49          1           0       10.497504   -1.402338    0.000004
     50          1           0       11.756083    1.437876    0.000001
     51          1           0       12.980164   -1.381669   -0.000007
     52          1           0       14.216487    1.471174   -0.000012
     53          1           0       15.506748   -1.326880   -0.000022
     54          1           0       16.367261    0.310485   -0.000025
 ---------------------------------------------------------------------

 SCF Done:  E(RB3LYP) =  -1007.51941552     A.U. after    1 cycles

 The electronic state is 1-A.
 Alpha  occ. eigenvalues --  -10.19499 -10.19495 -10.19490 -10.19484 -10.19477
 Alpha  occ. eigenvalues --  -10.19471 -10.19464 -10.19455 -10.19454 -10.19429
 Alpha  occ. eigenvalues --  -10.19421 -10.19414 -10.19409 -10.19405 -10.19400
 Alpha  occ. eigenvalues --  -10.19395 -10.19391 -10.19389 -10.19374 -10.19374
 Alpha  occ. eigenvalues --  -10.19346 -10.19346 -10.19272 -10.19272 -10.18402
 Alpha  occ. eigenvalues --  -10.18402  -0.83320  -0.83015  -0.82531  -0.81872
 Alpha  occ. eigenvalues --   -0.81042  -0.80043  -0.78878  -0.77552  -0.76071
 Alpha  occ. eigenvalues --   -0.74445  -0.72690  -0.70844  -0.69056  -0.65521
 Alpha  occ. eigenvalues --   -0.63425  -0.61146  -0.58843  -0.56882  -0.56680
 Alpha  occ. eigenvalues --   -0.56622  -0.56207  -0.55707  -0.55098  -0.54979
 Alpha  occ. eigenvalues --   -0.54497  -0.54279  -0.49029  -0.48774  -0.48092
 Alpha  occ. eigenvalues --   -0.47722  -0.46455  -0.46374  -0.45071  -0.44401
 Alpha  occ. eigenvalues --   -0.43641  -0.42480  -0.41779  -0.41002  -0.40074
 Alpha  occ. eigenvalues --   -0.39666  -0.38632  -0.38479  -0.37573  -0.37484
 Alpha  occ. eigenvalues --   -0.36911  -0.36725  -0.36177  -0.35771  -0.35717
 Alpha  occ. eigenvalues --   -0.35486  -0.35325  -0.35265  -0.35032  -0.34695
 Alpha  occ. eigenvalues --   -0.34665  -0.34611  -0.33831  -0.32734  -0.31409
 Alpha  occ. eigenvalues --   -0.29855  -0.28077  -0.26079  -0.23870  -0.21470
 Alpha  occ. eigenvalues --   -0.18934  -0.16473
 Alpha virt. eigenvalues --   -0.09322  -0.06677  -0.03819  -0.00995   0.01685
 Alpha virt. eigenvalues --    0.04132   0.06262   0.08002   0.08283   0.08728
 Alpha virt. eigenvalues --    0.09305   0.09427   0.10166   0.10352   0.10641

 Mulliken charges:
               1
     1  C   -0.256229
     2  C   -0.029707
     3  C   -0.077249
     4  C   -0.075303
     5  C   -0.078790
     6  C   -0.076639
     7  C   -0.078344
     8  C   -0.077447
     9  C   -0.078107
    10  C   -0.077686
    11  C   -0.077998
    12  C   -0.077812
    13  C   -0.077906
    14  C   -0.077906
    15  C   -0.077812
    16  C   -0.077997
    17  C   -0.077686
    18  C   -0.078107
    19  C   -0.077447
    20  C   -0.078344
    21  C   -0.076639
    22  C   -0.078791
    23  C   -0.075303
    24  C   -0.077249
    25  C   -0.029707
    26  C   -0.256229
    27  H    0.101488
    28  H    0.097216
    29  H    0.081296
    30  H    0.078373
    31  H    0.078251
    32  H    0.078469
    33  H    0.078008
    34  H    0.078165
    35  H    0.077967
    36  H    0.078056
    37  H    0.077963
    38  H    0.078009
    39  H    0.077971
    40  H    0.077985
    41  H    0.077985
    42  H    0.077971
    43  H    0.078009
    44  H    0.077963
    45  H    0.078056
    46  H    0.077967
    47  H    0.078165
    48  H    0.078008
    49  H    0.078469
    50  H    0.078251
    51  H    0.078373
    52  H    0.081296
    53  H    0.097216
    54  H    0.101488
 Sum of Mulliken charges =  -0.00000

 Dipole moment (field-independent basis, Debye):
    X=              0.0000    Y=              0.0000    Z=             -0.0000  Tot=              0.0000
 Quadrupole moment (field-independent basis, Debye-Ang):
   XX=           -145.6677   YY=           -138.6632   ZZ=           -169.4399
   XY=              0.5708   XZ=             -0.0000   YZ=             -0.0000

  Exact polarizability:3090.680-131.839 235.298  -0.001   0.000  92.514
 Approx polarizability:4460.993-352.381 389.069  -0.000   0.000 142.188

                      1                      2                      3
                      A                      A                      A
 Frequencies --      6.4083                 8.6893                17.7004
 Red. masses --      5.6887                 5.5345                 5.6357
 Frc consts  --      0.0001                 0.0002                 0.0010
 IR Inten    --      0.0054                 0.2975                 0.0000

                      4                      5                      6
                      A                      A                      A
 Frequencies --     24.0847                34.3609                46.8633
 Red. masses --      5.3211                 5.4579                 5.0843
 Frc consts  --      0.0018                 0.0038                 0.0066
 IR Inten    --      0.0000                 0.0271                 1.1873

                      7                      8                      9
                      A                      A                      A
 Frequencies --     55.2498                56.3393                76.5593
 Red. masses --      1.5798                 5.3848                 4.8319
 Frc consts  --      0.0028                 0.0101                 0.0167
 IR Inten    --      0.0767                 0.0000                 0.0000

                     10                     11                     12
                      A                      A                      A
 Frequencies --     83.4735               106.4231               111.9597
 Red. masses --      5.0508                 2.1128                 6.0408
 Frc consts  --      0.0207                 0.0141                 0.0446
 IR Inten    --      0.0933                 0.0000                 0.0000

                     13                     14                     15
                      A                      A                      A
 Frequencies --    112.4627               118.3840               145.1962
 Red. masses --      4.5789                 2.7928                 3.6931
 Frc consts  --      0.0341                 0.0231                 0.0459
 IR Inten    --      2.5355                 0.0000                 0.0290

                     16                     17                     18
                      A                      A                      A
 Frequencies --    153.9460               167.4079               182.3859
 Red. masses --      4.3349                 1.7956                 3.8725
 Frc consts  --      0.0605                 0.0296                 0.0759
 IR Inten    --      0.0000                 0.2258                 0.0000

                     19                     20                     21
                      A                      A                      A
 Frequencies --    199.7346               217.9969               219.7833
 Red. masses --      4.1000                 1.7732                 3.6836
 Frc consts  --      0.0964                 0.0496                 0.1048
 IR Inten    --      5.8169                 0.0000                 0.0683

                     22                     23                     24
                      A                      A                      A
 Frequencies --    220.5317               249.6760               255.5682
 Red. masses --      5.8350                 3.8729                 3.4198
 Frc consts  --      0.1672                 0.1422                 0.1316
 IR Inten    --     13.3637                 0.0000                 0.0000

                     25                     26                     27
                      A                      A                      A
 Frequencies --    265.8149               287.5747               302.2267
 Red. masses --      1.8517                 3.1266                 3.6723
 Frc consts  --      0.0771                 0.1523                 0.1976
 IR Inten    --      0.2067                 0.0684                 5.3360

                     28                     29                     30
                      A                      A                      A
 Frequencies --    308.0216               315.1926               322.4399
 Red. masses --      2.4255                 2.2698                 5.4072
 Frc consts  --      0.1356                 0.1329                 0.3312
 IR Inten    --      0.0000                 0.0000                 0.0000

                     31                     32                     33
                      A                      A                      A
 Frequencies --    350.1912               356.9511               383.2276
 Red. masses --      1.8843                 3.5299                 2.0730
 Frc consts  --      0.1362                 0.2650                 0.1794
 IR Inten    --      0.2110                 0.0000                 0.0000

                     34                     35                     36
                      A                      A                      A
 Frequencies --    405.2583               410.3062               422.1646
 Red. masses --      3.6174                 2.4032                 4.4746
 Frc consts  --      0.3500                 0.2384                 0.4699
 IR Inten    --     18.5086                 0.1175                 3.3537

                     37                     38                     39
                      A                      A                      A
 Frequencies --    430.2498               441.2842               461.4957
 Red. masses --      3.0053                 3.9914                 3.1654
 Frc consts  --      0.3278                 0.4579                 0.3972
 IR Inten    --      0.0000                 0.0205                 0.0000

                     40                     41                     42
                      A                      A                      A
 Frequencies --    501.0274               507.1718               556.9757
 Red. masses --      4.4027                 3.1390                 3.0959
 Frc consts  --      0.6512                 0.4757                 0.5659
 IR Inten    --      0.0000                 8.4210                 0.0000

                     43                     44                     45
                      A                      A                      A
 Frequencies --    563.9292               598.5651               607.3529
 Red. masses --      3.8399                 3.1339                 3.4032
 Frc consts  --      0.7195                 0.6616                 0.7396
 IR Inten    --      9.2758                 1.7368                 0.0000

                     46                     47                     48
                      A                      A                      A
 Frequencies --    629.3452               632.5907               662.8832
 Red. masses --      3.1897                 3.2299                 1.3718
 Frc consts  --      0.7443                 0.7615                 0.3552
 IR Inten    --      0.0000                 1.7645                 0.0001

                     49                     50                     51
                      A                      A                      A
 Frequencies --    662.8886               835.7617               844.2702
 Red. masses --      1.3720                 1.3279                 1.4322
 Frc consts  --      0.3552                 0.5465                 0.6015
 IR Inten    --      7.0878                 0.0000                 0.2922

                     52                     53                     54
                      A                      A                      A
 Frequencies --    856.9904               869.9331               881.6903
 Red. masses --      1.5652                 1.7072                 1.8352
 Frc consts  --      0.6773                 0.7612                 0.8406
 IR Inten    --      0.0000                 0.7776                 0.0000

                     55                     56                     57
                      A                      A                      A
 Frequencies --    891.8806               900.4702               907.4420
 Red. masses --      1.9341                 1.9901                 1.9799
 Frc consts  --      0.9064                 0.9508                 0.9606
 IR Inten    --      2.1057                 0.0000                 8.1756

                     58                     59                     60
                      A                      A                      A
 Frequencies --    912.6851               916.1858               918.5481
 Red. masses --      1.8699                 1.7206                 1.7219
 Frc consts  --      0.9177                 0.8509                 0.8560
 IR Inten    --      0.0000                31.9170                 0.0000

                     61                     62                     63
                      A                      A                      A
 Frequencies --    920.5176               921.3402               925.3568
 Red. masses --      1.8395                 2.0836                 1.1612
 Frc consts  --      0.9183                 1.0421                 0.5858
 IR Inten    --     28.4806                 0.0000                 1.0109

                     64                     65                     66
                      A                      A                      A
 Frequencies --    934.2120               945.2701               958.2050
 Red. masses --      1.1488                 1.1368                 1.1244
 Frc consts  --      0.5907                 0.5985                 0.6083
 IR Inten    --      0.0000                 1.2608                 0.0000

                     67                     68                     69
                      A                      A                      A
 Frequencies --    966.9502               966.9571               972.6263
 Red. masses --      1.4928                 1.4926                 1.1122
 Frc consts  --      0.8224                 0.8223                 0.6199
 IR Inten    --      0.0000                 2.2162                 1.3005

                     70                     71                     72
                      A                      A                      A
 Frequencies --    988.0318              1003.7376              1018.9163
 Red. masses --      1.1020                 1.0949                 1.0910
 Frc consts  --      0.6338                 0.6499                 0.6673
 IR Inten    --      0.0000                 1.1255                 0.0000

                     73                     74                     75
                      A                      A                      A
 Frequencies --   1032.7248              1044.4191              1053.4064
 Red. masses --      1.0893                 1.0888                 1.0888
 Frc consts  --      0.6845                 0.6997                 0.7119
 IR Inten    --      0.9281                 0.0000                 0.8462

                     76                     77                     78
                      A                      A                      A
 Frequencies --   1059.2106              1061.2948              1162.4925
 Red. masses --      1.0890                 1.0869                 2.4414
 Frc consts  --      0.7198                 0.7213                 1.9439
 IR Inten    --      0.0000               298.5045                 0.0000

                     79                     80                     81
                      A                      A                      A
 Frequencies --   1164.2943              1165.1276              1171.4967
 Red. masses --      2.3933                 2.2453                 4.0547
 Frc consts  --      1.9115                 1.7958                 3.2786
 IR Inten    --      0.2162                 0.0000                 0.7294

                     82                     83                     84
                      A                      A                      A
 Frequencies --   1171.8562              1178.5027              1187.3656
 Red. masses --      1.9251                 1.6666                 3.6261
 Frc consts  --      1.5576                 1.3638                 3.0121
 IR Inten    --      0.0000                 0.0027                 0.0000

                     85                     86                     87
                      A                      A                      A
 Frequencies --   1192.2497              1193.9631              1207.2374
 Red. masses --      1.5066                 1.4171                 3.5282
 Frc consts  --      1.2618                 1.1903                 3.0296
 IR Inten    --      0.0000               116.3485                 0.0133

                     88                     89                     90
                      A                      A                      A
 Frequencies --   1212.8530              1224.5861              1230.8050
 Red. masses --      1.2702                 2.9551                 1.3423
 Frc consts  --      1.1009                 2.6109                 1.1980
 IR Inten    --     59.5088                 0.0000                 0.0000

                     91                     92                     93
                      A                      A                      A
 Frequencies --   1237.8443              1246.8864              1261.9855
 Red. masses --      2.4947                 1.3113                 1.2737
 Frc consts  --      2.2522                 1.2012                 1.1952
 IR Inten    --      0.0041                44.4311                 0.0000

                     94                     95                     96
                      A                      A                      A
 Frequencies --   1276.5597              1291.4783              1307.0838
 Red. masses --      1.2473                 1.2404                 1.2788
 Frc consts  --      1.1975                 1.2189                 1.2873
 IR Inten    --     15.1275                 0.0000                15.2731

                     97                     98                     99
                      A                      A                      A
 Frequencies --   1318.3803              1319.9980              1320.3743
 Red. masses --      1.4240                 1.8260                 1.7597
 Frc consts  --      1.4583                 1.8745                 1.8075
 IR Inten    --      0.0000                 2.5333                 0.0000

                    100                    101                    102
                      A                      A                      A
 Frequencies --   1322.4782              1322.5940              1324.1971
 Red. masses --      1.4362                 1.8221                 1.8770
 Frc consts  --      1.4799                 1.8779                 1.9392
 IR Inten    --      4.5113                 0.0000               126.3885

                    103                    104                    105
                      A                      A                      A
 Frequencies --   1325.7481              1327.9465              1328.5994
 Red. masses --      1.6531                 2.2889                 1.5346
 Frc consts  --      1.7119                 2.3781                 1.5960
 IR Inten    --     92.5520                 0.0000                 0.0000

                    106                    107                    108
                      A                      A                      A
 Frequencies --   1330.6928              1331.6250              1333.6941
 Red. masses --      1.3524                 1.3432                 1.3492
 Frc consts  --      1.4109                 1.4033                 1.4140
 IR Inten    --      0.0000                 1.1421                 0.0000

                    109                    110                    111
                      A                      A                      A
 Frequencies --   1335.9919              1341.2453              1362.5789
 Red. masses --      1.3056                 1.2924                 1.4054
 Frc consts  --      1.3730                 1.3698                 1.5373
 IR Inten    --      2.8279                 0.0000                 1.5574

                    112                    113                    114
                      A                      A                      A
 Frequencies --   1393.3209              1425.3841              1466.4075
 Red. masses --      1.5828                 1.7591                 1.3135
 Frc consts  --      1.8104                 2.1057                 1.6642
 IR Inten    --      0.0000                 1.2820                 0.0000

                    115                    116                    117
                      A                      A                      A
 Frequencies --   1467.7335              1557.8660              1585.9417
 Red. masses --      1.3298                 2.6360                 4.7891
 Frc consts  --      1.6879                 3.7692                 7.0971
 IR Inten    --      5.5231                 0.0000                 0.0000

                    118                    119                    120
                      A                      A                      A
 Frequencies --   1610.6245              1611.5417              1634.5605
 Red. masses --      4.5828                 3.4042                 4.5320
 Frc consts  --      7.0044                 5.2090                 7.1342
 IR Inten    --      1.2279                 0.7175                 0.0000

                    121                    122                    123
                      A                      A                      A
 Frequencies --   1650.2968              1655.6294              1672.9729
 Red. masses --      3.9768                 4.5354                 4.6161
 Frc consts  --      6.3814                 7.3247                 7.6121
 IR Inten    --      0.0000                 7.2373                 0.0000

                    124                    125                    126
                      A                      A                      A
 Frequencies --   1675.5148              1685.4122              1688.2323
 Red. masses --      4.4085                 4.7469                 4.7478
 Frc consts  --      7.2918                 7.9445                 7.9727
 IR Inten    --      3.4299                 6.4412                 0.0000

                    127                    128                    129
                      A                      A                      A
 Frequencies --   1699.1431              1699.7503              3137.5079
 Red. masses --      4.4713                 4.5091                 1.0885
 Frc consts  --      7.6057                 7.6755                 6.3131
 IR Inten    --      0.0000                33.2302                 1.9726

                    130                    131                    132
                      A                      A                      A
 Frequencies --   3137.6142              3137.6887              3137.9740
 Red. masses --      1.0886                 1.0884                 1.0887
 Frc consts  --      6.3140                 6.3131                 6.3163
 IR Inten    --      0.0000                 0.0000                 3.5517

                    133                    134                    135
                      A                      A                      A
 Frequencies --   3138.1555              3138.5403              3139.2406
 Red. masses --      1.0881                 1.0889                 1.0891
 Frc consts  --      6.3132                 6.3195                 6.3234
 IR Inten    --      0.5696                 0.0000                 6.2025

                    136                    137                    138
                      A                      A                      A
 Frequencies --   3139.9742              3140.6292              3140.6559
 Red. masses --      1.0891                 1.0907                 1.0889
 Frc consts  --      6.3268                 6.3388                 6.3280
 IR Inten    --      0.0000                 0.0000                 2.4280

                    139                    140                    141
                      A                      A                      A
 Frequencies --   3141.3806              3141.4521              3142.1853
 Red. masses --      1.0886                 1.0899                 1.0904
 Frc consts  --      6.3296                 6.3373                 6.3430
 IR Inten    --      0.0001               110.3536                 0.0000

                    142                    143                    144
                      A                      A                      A
 Frequencies --   3142.4794              3143.9071              3145.5326
 Red. masses --      1.0883                 1.0883                 1.0879
 Frc consts  --      6.3318                 6.3379                 6.3420
 IR Inten    --     41.3057                 0.0000                 4.2921

                    145                    146                    147
                      A                      A                      A
 Frequencies --   3147.2222              3148.8736              3150.4307
 Red. masses --      1.0873                 1.0867                 1.0860
 Frc consts  --      6.3454                 6.3483                 6.3508
 IR Inten    --      0.0000                 1.8434                 0.0000

                    148                    149                    150
                      A                      A                      A
 Frequencies --   3151.8423              3153.0729              3154.0811
 Red. masses --      1.0855                 1.0850                 1.0848
 Frc consts  --      6.3532                 6.3558                 6.3587
 IR Inten    --      2.6594                 0.0000                 7.5302

                    151                    152                    153
                      A                      A                      A
 Frequencies --   3154.7933              3154.9694              3158.7157
 Red. masses --      1.0849                 1.0849                 1.0667
 Frc consts  --      6.3617                 6.3628                 6.2709
 IR Inten    --      0.0000               613.6896                39.6580

                    154                    155                    156
                      A                      A                      A
 Frequencies --   3158.7261              3247.9336              3247.9341
 Red. masses --      1.0668                 1.1158                 1.1158
 Frc consts  --      6.2714                 6.9350                 6.9350
 IR Inten    --      0.0004                31.4467                 0.3644

 - Thermochemistry -
 -------------------
 Temperature   298.150 Kelvin.  Pressure   1.00000 Atm.
 Atom     1 has atomic number  6 and mass  12.00000

 Molecular mass:   340.21910 amu.
 Principal axes and moments of inertia in atomic units:
                           1         2         3
     Eigenvalues --   303.56116********************
           X            1.00000  -0.00020  -0.00000
           Y            0.00020   1.00000  -0.00000
           Z            0.00000   0.00000   1.00000
 This molecule is an asymmetric top.
 Rotational symmetry number  1.
 Rotational temperatures (Kelvin)      0.28533     0.00082     0.00082
 Rotational constants (GHZ):           5.94523     0.01706     0.01701
 Zero-point vibrational energy    1191779.7 (Joules/Mol)
                                  284.84218 (Kcal/Mol)
 Warning -- explicit consideration of  45 degrees of freedom as
           vibrations may cause significant error
 Vibrational temperatures:      9.22    12.50    25.47    34.65    49.44
          (Kelvin)             67.43    79.49    81.06   110.15   120.10
                              153.12   161.08   161.81   170.33   208.90
                              221.49   240.86   262.41   287.37   313.65
                              316.22   317.30   359.23   367.71   382.45
                              413.76   434.84   443.17   453.49   463.92
                              503.85   513.57   551.38   583.08   590.34
                              607.40   619.03   634.91   663.99   720.87
                              729.71   801.36   811.37   861.20   873.85
                              905.49   910.16   953.74   953.75  1202.47
                             1214.72  1233.02  1251.64  1268.56  1283.22
                             1295.58  1305.61  1313.15  1318.19  1321.59
                             1324.42  1325.60  1331.38  1344.12  1360.03
                             1378.64  1391.23  1391.24  1399.39  1421.56
                             1444.15  1465.99  1485.86  1502.69  1515.62
                             1523.97  1526.97  1672.57  1675.16  1676.36
                             1685.52  1686.04  1695.60  1708.35  1715.38
                             1717.85  1736.95  1745.02  1761.91  1770.85
                             1780.98  1793.99  1815.72  1836.68  1858.15
                             1880.60  1896.86  1899.18  1899.72  1902.75
                             1902.92  1905.22  1907.46  1910.62  1911.56
                             1914.57  1915.91  1918.89  1922.19  1929.75
                             1960.45  2004.68  2050.81  2109.83  2111.74
                             2241.42  2281.82  2317.33  2318.65  2351.77
                             2374.41  2382.08  2407.03  2410.69  2424.93
                             2428.99  2444.69  2445.56  4514.17  4514.33
                             4514.43  4514.84  4515.11  4515.66  4516.67
                             4517.72  4518.66  4518.70  4519.75  4519.85
                             4520.90  4521.33  4523.38  4525.72  4528.15
                             4530.53  4532.77  4534.80  4536.57  4538.02
                             4539.04  4539.30  4544.69  4544.70  4673.05
                             4673.05

 Zero-point correction=                           0.453925 (Hartree/Particle)
 Thermal correction to Energy=                    0.482512
 Thermal correction to Enthalpy=                  0.483456
 Thermal correction to Gibbs Free Energy=         0.389120
 Sum of electronic and zero-point Energies=          -1007.065491
 Sum of electronic and thermal Energies=             -1007.036904
 Sum of electronic and thermal Enthalpies=           -1007.035960
 Sum of electronic and thermal Free Energies=        -1007.130296

                     E (Thermal)             CV                S
                      KCal/Mol        Cal/Mol-Kelvin    Cal/Mol-Kelvin
 Total                  302.781            104.646            198.546
 Electronic               0.000              0.000              0.000
 Translational            0.889              2.981             43.368
 Rotational               0.889              2.981             36.475
 Vibrational            301.003             98.685            118.704
 Vibration     1          0.593              1.987              8.895
 Vibration     2          0.593              1.987              8.290
 Vibration     3          0.593              1.986              6.877
 Vibration     4          0.593              1.985              6.265
 Vibration     5          0.594              1.983              5.560
 Vibration     6          0.595              1.979              4.946
 Vibration     7          0.596              1.975              4.620
 Vibration     8          0.596              1.975              4.581
 Vibration     9          0.599              1.965              3.977
 Vibration    10          0.600              1.961              3.807
 Vibration    11          0.605              1.944              3.333
 Vibration    12          0.607              1.940              3.235
 Vibration    13          0.607              1.939              3.226
 Vibration    14          0.609              1.934              3.127
 Vibration    15          0.617              1.908              2.734
 Vibration    16          0.619              1.898              2.623
 Vibration    17          0.624              1.883              2.464
 Vibration    18          0.630              1.864              2.304
 Vibration    19          0.638              1.840              2.136
 Vibration    20          0.646              1.814              1.976
 Vibration    21          0.647              1.811              1.961
 Vibration    22          0.647              1.810              1.955
 Vibration    23          0.662              1.763              1.733
 Vibration    24          0.666              1.753              1.692
 Vibration    25          0.672              1.736              1.623
 Vibration    26          0.685              1.697              1.488
 Vibration    27          0.694              1.669              1.405
 Vibration    28          0.698              1.658              1.373
 Vibration    29          0.703              1.645              1.335
 Vibration    30          0.707              1.631              1.298
 Vibration    31          0.727              1.575              1.165
 Vibration    32          0.732              1.561              1.135
 Vibration    33          0.752              1.506              1.026
 Vibration    34          0.770              1.459              0.944
 Vibration    35          0.774              1.448              0.926
 Vibration    36          0.784              1.422              0.885
 Vibration    37          0.791              1.404              0.858
 Vibration    38          0.801              1.380              0.823
 Vibration    39          0.819              1.335              0.762
 Vibration    40          0.856              1.248              0.656
 Vibration    41          0.862              1.234              0.640
 Vibration    42          0.912              1.124              0.530
 Vibration    43          0.920              1.109              0.516
 Vibration    44          0.957              1.035              0.452
 Vibration    45          0.966              1.016              0.437

 Optimization completed.
    -- Stationary point found.
 Normal termination of Gaussian 16 at Thu Nov  9 21:46:22 2023.
