 Gaussian 16, Revision B.01,
 Gaussian 16:  EM64L-G16RevB.01 20-Dec-2017

 ---------------------------
 # B3LYP/6-31G(d,p) OPT FREQ
 ---------------------------

 -----
 2poly
 -----
 Symbolic Z-matrix:
 Charge =  0 Multiplicity = 1

 SCF Done:  E(RB3LYP) =  -155.999712852     A.U. after   11 cycles
 SCF Done:  E(RB3LYP) =  -156.001605323     A.U. after   10 cycles
 SCF Done:  E(RB3LYP) =  -156.001661084     A.U. after    7 cycles
 SCF Done:  E(RB3LYP) =  -156.001662845     A.U. after    7 cycles
 Optimization completed.
    -- Stationary point found.
 Normal termination of Gaussian 16 at Fri Oct 27 15:11:03 2023.

 ----------------------------------------------------------------------
 #N Geom=AllCheck Guess=TCheck SCRF=Check GenChk RB3LYP/6-31G(d,p) Freq
 ----------------------------------------------------------------------

 Structure from the checkpoint file:  "./chk/2.chk"
 -----
 2poly
 -----
 Charge =  0 Multiplicity = 1

                         Standard orientation:
 ---------------------------------------------------------------------
 Center     Atomic      Atomic             Coordinates (Angstroms)
 Number     Number       Type             X           Y           Z
 ---------------------------------------------------------------------
      1          6           0        1.848041    0.109280    0.000003
      2          6           0        0.608752   -0.400367   -0.000003
      3          6           0       -0.608752    0.400367   -0.000003
      4          6           0       -1.848041   -0.109280    0.000003
      5          1           0        2.019739    1.182718    0.000004
      6          1           0        0.474353   -1.482017   -0.000008
      7          1           0       -0.474353    1.482017   -0.000008
      8          1           0       -2.019739   -1.182718    0.000004
      9          1           0       -2.727331    0.526215    0.000004
     10          1           0        2.727331   -0.526215    0.000004
 ---------------------------------------------------------------------

 SCF Done:  E(RB3LYP) =  -156.001662845     A.U. after    1 cycles

 The electronic state is 1-A.
 Alpha  occ. eigenvalues --  -10.19258 -10.19223 -10.18385 -10.18385  -0.80173
 Alpha  occ. eigenvalues --   -0.72989  -0.60265  -0.54952  -0.46326  -0.45857
 Alpha  occ. eigenvalues --   -0.39086  -0.38370  -0.34326  -0.32041  -0.22969
 Alpha virt. eigenvalues --   -0.02355   0.08398   0.11590   0.12566   0.13083
 Alpha virt. eigenvalues --    0.17543   0.19243   0.21223   0.32366   0.33568
 Alpha virt. eigenvalues --    0.39627   0.47034   0.51026   0.53001   0.57780

 Mulliken charges:
               1
     1  C   -0.252775
     2  C   -0.028741
     3  C   -0.028741
     4  C   -0.252775
     5  H    0.097700
     6  H    0.082045
     7  H    0.082045
     8  H    0.097700
     9  H    0.101771
    10  H    0.101771
 Sum of Mulliken charges =  -0.00000

 Dipole moment (field-independent basis, Debye):
    X=             -0.0000    Y=              0.0000    Z=             -0.0000  Tot=              0.0000
 Quadrupole moment (field-independent basis, Debye-Ang):
   XX=            -22.8843   YY=            -22.6667   ZZ=            -27.8648
   XY=              0.0072   XZ=             -0.0000   YZ=              0.0000

  Exact polarizability:  78.102   5.825  39.623  -0.000   0.000  16.045
 Approx polarizability: 127.474  16.642  55.641  -0.000   0.000  22.646

                      1                      2                      3
                      A                      A                      A
 Frequencies --    177.0263               295.6753               516.2696
 Red. masses --      2.6408                 2.1621                 2.6780
 Frc consts  --      0.0488                 0.1114                 0.4205
 IR Inten    --      0.2009                 2.6018                 0.0000

                      4                      5                      6
                      A                      A                      A
 Frequencies --    540.2146               781.7271               904.8202
 Red. masses --      1.0738                 1.6567                 1.8087
 Frc consts  --      0.1846                 0.5965                 0.8725
 IR Inten    --      7.6162                 0.0000                 0.0000

                      7                      8                      9
                      A                      A                      A
 Frequencies --    930.3453               933.9877              1003.1910
 Red. masses --      1.3651                 1.3418                 1.1830
 Frc consts  --      0.6962                 0.6896                 0.7014
 IR Inten    --     74.4914                 0.0000                 0.0000

                     10                     11                     12
                      A                      A                      A
 Frequencies --   1005.9482              1063.5458              1234.5608
 Red. masses --      1.1983                 1.0919                 1.9489
 Frc consts  --      0.7144                 0.7277                 1.7501
 IR Inten    --      2.2592                24.8453                 0.0000

                     13                     14                     15
                      A                      A                      A
 Frequencies --   1322.5241              1323.6317              1426.0527
 Red. masses --      1.3487                 1.2781                 1.2381
 Frc consts  --      1.3898                 1.3193                 1.4835
 IR Inten    --      0.0000                 1.9982                 3.0645

                     16                     17                     18
                      A                      A                      A
 Frequencies --   1485.6289              1673.1263              1726.5572
 Red. masses --      1.2212                 3.6577                 4.5439
 Frc consts  --      1.5880                 6.0327                 7.9806
 IR Inten    --      0.0000                12.6044                 0.0000

                     19                     20                     21
                      A                      A                      A
 Frequencies --   3142.2510              3152.2007              3157.2449
 Red. masses --      1.0795                 1.0734                 1.0775
 Frc consts  --      6.2800                 6.2840                 6.3283
 IR Inten    --      0.0000                30.4165                 6.3706

                     22                     23                     24
                      A                      A                      A
 Frequencies --   3158.0311              3244.8513              3245.2509
 Red. masses --      1.0697                 1.1158                 1.1155
 Frc consts  --      6.2854                 6.9222                 6.9218
 IR Inten    --      0.0000                 0.0000                30.0185

 - Thermochemistry -
 -------------------
 Temperature   298.150 Kelvin.  Pressure   1.00000 Atm.
 Atom     1 has atomic number  6 and mass  12.00000

 Molecular mass:    54.04695 amu.
 Principal axes and moments of inertia in atomic units:
                           1         2         3
     Eigenvalues --    42.62440 408.99980 451.62420
           X            0.99999   0.00485  -0.00000
           Y           -0.00485   0.99999   0.00000
           Z            0.00000  -0.00000   1.00000
 This molecule is an asymmetric top.
 Rotational symmetry number  1.
 Rotational temperatures (Kelvin)      2.03203     0.21177     0.19178
 Rotational constants (GHZ):          42.34056     4.41257     3.99611
 Zero-point vibrational energy     223968.8 (Joules/Mol)
                                   53.52983 (Kcal/Mol)
 Warning -- explicit consideration of   4 degrees of freedom as
           vibrations may cause significant error
 Vibrational temperatures:    254.70   425.41   742.80   777.25  1124.73
          (Kelvin)           1301.83  1338.56  1343.80  1443.37  1447.34
                             1530.21  1776.26  1902.82  1904.41  2051.77
                             2137.49  2407.26  2484.13  4521.00  4535.31
                             4542.57  4543.70  4668.62  4669.19

 Zero-point correction=                           0.085305 (Hartree/Particle)
 Thermal correction to Energy=                    0.089954
 Thermal correction to Enthalpy=                  0.090898
 Thermal correction to Gibbs Free Energy=         0.058858
 Sum of electronic and zero-point Energies=           -155.916358
 Sum of electronic and thermal Energies=              -155.911709
 Sum of electronic and thermal Enthalpies=            -155.910765
 Sum of electronic and thermal Free Energies=         -155.942805

                     E (Thermal)             CV                S
                      KCal/Mol        Cal/Mol-Kelvin    Cal/Mol-Kelvin
 Total                   56.447             15.744             67.434
 Electronic               0.000              0.000              0.000
 Translational            0.889              2.981             37.884
 Rotational               0.889              2.981             23.580
 Vibrational             54.670              9.782              5.970
 Vibration     1          0.628              1.871              2.360
 Vibration     2          0.690              1.682              1.441
 Vibration     3          0.871              1.214              0.619
 Vibration     4          0.895              1.161              0.565

 Optimization completed.
    -- Stationary point found.
 Normal termination of Gaussian 16 at Fri Oct 27 15:12:40 2023.
