 Gaussian 16, Revision B.01,
 Gaussian 16:  EM64L-G16RevB.01 20-Dec-2017

 ---------------------------
 # B3LYP/6-31G(d,p) OPT FREQ
 ---------------------------

 -----
 3poly
 -----
 Symbolic Z-matrix:
 Charge =  0 Multiplicity = 1

 SCF Done:  E(RB3LYP) =  -233.407361012     A.U. after   12 cycles
 SCF Done:  E(RB3LYP) =  -233.411120907     A.U. after   11 cycles
 SCF Done:  E(RB3LYP) =  -233.411259460     A.U. after    9 cycles
 SCF Done:  E(RB3LYP) =  -233.411264409     A.U. after    7 cycles
 Optimization completed.
    -- Stationary point found.
 Normal termination of Gaussian 16 at Fri Oct 27 15:14:48 2023.

 ----------------------------------------------------------------------
 #N Geom=AllCheck Guess=TCheck SCRF=Check GenChk RB3LYP/6-31G(d,p) Freq
 ----------------------------------------------------------------------

 Structure from the checkpoint file:  "./chk/3.chk"
 -----
 3poly
 -----
 Charge =  0 Multiplicity = 1

                         Standard orientation:
 ---------------------------------------------------------------------
 Center     Atomic      Atomic             Coordinates (Angstroms)
 Number     Number       Type             X           Y           Z
 ---------------------------------------------------------------------
      1          6           0        3.074992    0.167630    0.000009
      2          6           0        1.867547   -0.419211   -0.000002
      3          6           0        0.607077    0.297054   -0.000009
      4          6           0       -0.607077   -0.297054   -0.000009
      5          6           0       -1.867547    0.419211   -0.000002
      6          6           0       -3.074992   -0.167630    0.000009
      7          1           0        3.179733    1.249498    0.000010
      8          1           0        1.805255   -1.507414   -0.000005
      9          1           0        0.662306    1.386120   -0.000011
     10          1           0       -0.662306   -1.386119   -0.000011
     11          1           0       -1.805255    1.507414   -0.000005
     12          1           0       -3.179733   -1.249498    0.000010
     13          1           0       -3.991418    0.412692    0.000016
     14          1           0        3.991417   -0.412693    0.000016
 ---------------------------------------------------------------------

 SCF Done:  E(RB3LYP) =  -233.411264409     A.U. after    1 cycles

 The electronic state is 1-A.
 Alpha  occ. eigenvalues --  -10.19347 -10.19344 -10.19286 -10.19213 -10.18409
 Alpha  occ. eigenvalues --  -10.18409  -0.81706  -0.77611  -0.71740  -0.61878
 Alpha  occ. eigenvalues --   -0.55637  -0.55236  -0.48216  -0.45708  -0.42771
 Alpha  occ. eigenvalues --   -0.40226  -0.37894  -0.35993  -0.34354  -0.33810
 Alpha  occ. eigenvalues --   -0.28650  -0.20987
 Alpha virt. eigenvalues --   -0.04520   0.04630   0.10076   0.10101   0.12370
 Alpha virt. eigenvalues --    0.13087   0.14339   0.16363   0.18682   0.18768
 Alpha virt. eigenvalues --    0.21056   0.31092   0.33363   0.35007   0.37342

 Mulliken charges:
               1
     1  C   -0.254982
     2  C   -0.029738
     3  C   -0.074912
     4  C   -0.074912
     5  C   -0.029738
     6  C   -0.254982
     7  H    0.097331
     8  H    0.081942
     9  H    0.078759
    10  H    0.078759
    11  H    0.081942
    12  H    0.097331
    13  H    0.101600
    14  H    0.101600
 Sum of Mulliken charges =  -0.00000

 Dipole moment (field-independent basis, Debye):
    X=             -0.0000    Y=              0.0000    Z=              0.0000  Tot=              0.0000
 Quadrupole moment (field-independent basis, Debye-Ang):
   XX=            -33.8165   YY=            -33.2053   ZZ=            -40.7342
   XY=             -0.0319   XZ=              0.0000   YZ=             -0.0000

  Exact polarizability: 155.371  12.123  57.779   0.000  -0.000  23.050
 Approx polarizability: 258.497  35.546  86.114   0.000   0.000  33.520

                      1                      2                      3
                      A                      A                      A
 Frequencies --    101.7241               147.3452               228.4292
 Red. masses --      3.3445                 2.9621                 2.8283
 Frc consts  --      0.0204                 0.0379                 0.0870
 IR Inten    --      0.2308                 2.0183                 0.0000

                      4                      5                      6
                      A                      A                      A
 Frequencies --    256.6251               350.2267               445.7109
 Red. masses --      1.6305                 2.4904                 4.2798
 Frc consts  --      0.0633                 0.1800                 0.5009
 IR Inten    --      1.1754                 0.0000                 0.0000

                      7                      8                      9
                      A                      A                      A
 Frequencies --    542.8010               619.4451               711.4080
 Red. masses --      2.4902                 1.1702                 1.6208
 Frc consts  --      0.4323                 0.2645                 0.4833
 IR Inten    --      5.6521                 0.0000                 7.6740

                     10                     11                     12
                      A                      A                      A
 Frequencies --    899.0472               922.6777               926.6648
 Red. masses --      1.7977                 1.3394                 1.4914
 Frc consts  --      0.8561                 0.6718                 0.7546
 IR Inten    --      0.0000                71.1770                 0.0000

                     13                     14                     15
                      A                      A                      A
 Frequencies --    950.2905               973.9886               983.5666
 Red. masses --      1.4388                 1.1735                 1.5513
 Frc consts  --      0.7655                 0.6559                 0.8842
 IR Inten    --      0.0000                 4.6493                 2.8429

                     16                     17                     18
                      A                      A                      A
 Frequencies --   1030.0050              1062.9782              1165.7869
 Red. masses --      1.1103                 1.0917                 2.2444
 Frc consts  --      0.6940                 0.7268                 1.7971
 IR Inten    --      0.0000                48.8128                 5.6943

                     19                     20                     21
                      A                      A                      A
 Frequencies --   1226.7064              1288.2421              1321.4957
 Red. masses --      1.8705                 1.3083                 1.5601
 Frc consts  --      1.6584                 1.2792                 1.6052
 IR Inten    --      0.0000                 2.6093                 0.0000

                     22                     23                     24
                      A                      A                      A
 Frequencies --   1332.8658              1335.8022              1445.5796
 Red. masses --      1.2863                 1.3131                 1.2788
 Frc consts  --      1.3464                 1.3805                 1.5744
 IR Inten    --      3.5713                 0.0000                 0.0000

                     25                     26                     27
                      A                      A                      A
 Frequencies --   1477.5286              1653.9259              1705.3328
 Red. masses --      1.2431                 3.8932                 4.2700
 Frc consts  --      1.5989                 6.2746                 7.3165
 IR Inten    --      2.2513                 0.0000                16.8571

                     28                     29                     30
                      A                      A                      A
 Frequencies --   1709.0945              3139.9328              3140.5400
 Red. masses --      4.7324                 1.0842                 1.0898
 Frc consts  --      8.1444                 6.2981                 6.3327
 IR Inten    --      0.0000                 0.0718                 0.0000

                     31                     32                     33
                      A                      A                      A
 Frequencies --   3148.1011              3153.4739              3158.3576
 Red. masses --      1.0826                 1.0810                 1.0698
 Frc consts  --      6.3213                 6.3338                 6.2872
 IR Inten    --      0.0000                59.5920                 9.7456

                     34                     35                     36
                      A                      A                      A
 Frequencies --   3158.5331              3247.0915              3247.1078
 Red. masses --      1.0691                 1.1158                 1.1158
 Frc consts  --      6.2841                 6.9312                 6.9313
 IR Inten    --      0.0000                 0.0000                28.6729

 - Thermochemistry -
 -------------------
 Temperature   298.150 Kelvin.  Pressure   1.00000 Atm.
 Atom     1 has atomic number  6 and mass  12.00000

 Molecular mass:    80.06260 amu.
 Principal axes and moments of inertia in atomic units:
                           1         2         3
     Eigenvalues --    67.671731354.977051422.64878
           X            1.00000   0.00288   0.00000
           Y           -0.00288   1.00000  -0.00000
           Z           -0.00000   0.00000   1.00000
 This molecule is an asymmetric top.
 Rotational symmetry number  1.
 Rotational temperatures (Kelvin)      1.27991     0.06392     0.06088
 Rotational constants (GHZ):          26.66906     1.33193     1.26858
 Zero-point vibrational energy     312275.8 (Joules/Mol)
                                   74.63570 (Kcal/Mol)
 Warning -- explicit consideration of   8 degrees of freedom as
           vibrations may cause significant error
 Vibrational temperatures:    146.36   212.00   328.66   369.23   503.90
          (Kelvin)            641.28   780.97   891.24  1023.56  1293.53
                             1327.53  1333.26  1367.26  1401.35  1415.13
                             1481.95  1529.39  1677.31  1764.96  1853.49
                             1901.34  1917.70  1921.92  2079.87  2125.83
                             2379.63  2453.59  2459.01  4517.66  4518.54
                             4529.42  4537.15  4544.17  4544.42  4671.84
                             4671.86

 Zero-point correction=                           0.118940 (Hartree/Particle)
 Thermal correction to Energy=                    0.125659
 Thermal correction to Enthalpy=                  0.126604
 Thermal correction to Gibbs Free Energy=         0.088846
 Sum of electronic and zero-point Energies=           -233.292325
 Sum of electronic and thermal Energies=              -233.285605
 Sum of electronic and thermal Enthalpies=            -233.284661
 Sum of electronic and thermal Free Energies=         -233.322418

                     E (Thermal)             CV                S
                      KCal/Mol        Cal/Mol-Kelvin    Cal/Mol-Kelvin
 Total                   78.852             23.854             79.468
 Electronic               0.000              0.000              0.000
 Translational            0.889              2.981             39.055
 Rotational               0.889              2.981             26.370
 Vibrational             77.075             17.892             14.043
 Vibration     1          0.604              1.948              3.421
 Vibration     2          0.617              1.906              2.706
 Vibration     3          0.651              1.798              1.891
 Vibration     4          0.666              1.752              1.685
 Vibration     5          0.727              1.575              1.165
 Vibration     6          0.805              1.370              0.809
 Vibration     7          0.898              1.155              0.559
 Vibration     8          0.979              0.991              0.417

 Optimization completed.
    -- Stationary point found.
 Normal termination of Gaussian 16 at Fri Oct 27 15:19:06 2023.
