 Gaussian 16, Revision B.01,
 Gaussian 16:  EM64L-G16RevB.01 20-Dec-2017

 ---------------------------
 # B3LYP/6-31G(d,p) OPT FREQ
 ---------------------------

 -----
 7poly
 -----
 Symbolic Z-matrix:
 Charge =  0 Multiplicity = 1

 SCF Done:  E(RB3LYP) =  -465.631676526     A.U. after   13 cycles
 SCF Done:  E(RB3LYP) =  -465.642176750     A.U. after   12 cycles
 SCF Done:  E(RB3LYP) =  -465.642870893     A.U. after   11 cycles
 SCF Done:  E(RB3LYP) =  -465.642905093     A.U. after    8 cycles
 SCF Done:  E(RB3LYP) =  -465.642907003     A.U. after    7 cycles
 Optimization completed.
    -- Stationary point found.
 Normal termination of Gaussian 16 at Thu Nov  9 19:36:57 2023.

 ----------------------------------------------------------------------
 #N Geom=AllCheck Guess=TCheck SCRF=Check GenChk RB3LYP/6-31G(d,p) Freq
 ----------------------------------------------------------------------

 Structure from the checkpoint file:  "checkpoint.chk"
 -----
 7poly
 -----
 Charge =  0 Multiplicity = 1

                         Standard orientation:
 ---------------------------------------------------------------------
 Center     Atomic      Atomic             Coordinates (Angstroms)
 Number     Number       Type             X           Y           Z
 ---------------------------------------------------------------------
      1          6           0        6.780188   -0.225560   -0.000005
      2          6           0        5.588311    0.395964   -0.000003
      3          6           0        4.310167   -0.280228    0.000000
      4          6           0        3.110493    0.354990    0.000002
      5          6           0        1.837128   -0.309272    0.000004
      6          6           0        0.636169    0.330927    0.000004
      7          6           0       -0.636168   -0.330901    0.000004
      8          6           0       -1.837130    0.309293    0.000004
      9          6           0       -3.110490   -0.354978    0.000002
     10          6           0       -4.310170    0.280228    0.000000
     11          6           0       -5.588306   -0.395980   -0.000003
     12          6           0       -6.780192    0.225526   -0.000005
     13          1           0        7.712416    0.328910   -0.000008
     14          1           0        6.854680   -1.309884   -0.000005
     15          1           0        5.559249    1.485652   -0.000004
     16          1           0        4.329308   -1.370332    0.000001
     17          1           0        3.097631    1.445512    0.000001
     18          1           0        1.847869   -1.399563    0.000004
     19          1           0        0.626427    1.421332    0.000004
     20          1           0       -0.626423   -1.421306    0.000004
     21          1           0       -1.847875    1.399584    0.000004
     22          1           0       -3.097617   -1.445500    0.000001
     23          1           0       -4.329323    1.370331    0.000001
     24          1           0       -5.559228   -1.485668   -0.000004
     25          1           0       -6.854700    1.309849   -0.000005
     26          1           0       -7.712412   -0.328958   -0.000008
 ---------------------------------------------------------------------

 SCF Done:  E(RB3LYP) =  -465.642907003     A.U. after    1 cycles

 The electronic state is 1-A.
 Alpha  occ. eigenvalues --  -10.19472 -10.19452 -10.19414 -10.19405 -10.19382
 Alpha  occ. eigenvalues --  -10.19371 -10.19354 -10.19354 -10.19277 -10.19277
 Alpha  occ. eigenvalues --  -10.18409 -10.18409  -0.82929  -0.81639  -0.79644
 Alpha  occ. eigenvalues --   -0.76983  -0.73733  -0.70135  -0.64060  -0.59640
 Alpha  occ. eigenvalues --   -0.56557  -0.55785  -0.55372  -0.54485  -0.48678
 Alpha  occ. eigenvalues --   -0.47600  -0.46356  -0.44657  -0.42758  -0.41387
 Alpha  occ. eigenvalues --   -0.39385  -0.38746  -0.37389  -0.36709  -0.35646
 Alpha  occ. eigenvalues --   -0.35247  -0.34880  -0.34501  -0.33607  -0.31024
 Alpha  occ. eigenvalues --   -0.27532  -0.23204  -0.18325
 Alpha virt. eigenvalues --   -0.07382  -0.01853   0.03395   0.07533   0.08769
 Alpha virt. eigenvalues --    0.09985   0.10465   0.10813   0.12537   0.12672
 Alpha virt. eigenvalues --    0.13020   0.14624   0.14713   0.15556   0.16294

 Mulliken charges:
               1
     1  C   -0.256075
     2  C   -0.029664
     3  C   -0.077099
     4  C   -0.075440
     5  C   -0.078328
     6  C   -0.077050
     7  C   -0.077050
     8  C   -0.078328
     9  C   -0.075440
    10  C   -0.077099
    11  C   -0.029664
    12  C   -0.256075
    13  H    0.101537
    14  H    0.097240
    15  H    0.081391
    16  H    0.078388
    17  H    0.078372
    18  H    0.078495
    19  H    0.078236
    20  H    0.078235
    21  H    0.078495
    22  H    0.078372
    23  H    0.078388
    24  H    0.081391
    25  H    0.097240
    26  H    0.101537
 Sum of Mulliken charges =   0.00000

 Dipole moment (field-independent basis, Debye):
    X=              0.0000    Y=              0.0000    Z=             -0.0000  Tot=              0.0000
 Quadrupole moment (field-independent basis, Debye-Ang):
   XX=            -67.0406   YY=            -64.8402   ZZ=            -79.3436
   XY=              0.1796   XZ=              0.0000   YZ=             -0.0000

  Exact polarizability: 604.099 -37.564 111.092   0.000   0.000  43.928
 Approx polarizability: 992.449-111.131 176.880  -0.000   0.000  66.120

                      1                      2                      3
                      A                      A                      A
 Frequencies --     29.3175                40.0575                78.6514
 Red. masses --      4.7963                 4.4113                 4.4389
 Frc consts  --      0.0024                 0.0042                 0.0162
 IR Inten    --      0.0545                 0.8792                 0.0000

                      4                      5                      6
                      A                      A                      A
 Frequencies --    107.2762               114.9999               152.5123
 Red. masses --      3.9227                 1.7846                 3.0080
 Frc consts  --      0.0266                 0.0139                 0.0412
 IR Inten    --      0.0000                 0.0876                 0.4658

                      7                      8                      9
                      A                      A                      A
 Frequencies --    200.1448               204.0372               235.6951
 Red. masses --      3.5008                 2.7346                 5.3969
 Frc consts  --      0.0826                 0.0671                 0.1766
 IR Inten    --      3.7388                 0.0000                 0.0000

                     10                     11                     12
                      A                      A                      A
 Frequencies --    251.7134               274.9910               311.0136
 Red. masses --      1.8681                 3.1243                 3.1705
 Frc consts  --      0.0697                 0.1392                 0.1807
 IR Inten    --      0.0000                 0.0107                 0.0000

                     13                     14                     15
                      A                      A                      A
 Frequencies --    343.6421               414.5136               416.9462
 Red. masses --      1.8766                 3.1306                 2.6493
 Frc consts  --      0.1306                 0.3169                 0.2714
 IR Inten    --      0.5018                15.8563                 0.0000

                     16                     17                     18
                      A                      A                      A
 Frequencies --    453.6733               518.6206               591.7249
 Red. masses --      4.0932                 2.8423                 3.6185
 Frc consts  --      0.4964                 0.4504                 0.7465
 IR Inten    --      2.4124                 0.0000                 0.0000

                     19                     20                     21
                      A                      A                      A
 Frequencies --    604.9367               660.8318               666.3841
 Red. masses --      2.9553                 1.3359                 1.4167
 Frc consts  --      0.6372                 0.3437                 0.3707
 IR Inten    --      3.8942                 7.0330                 0.0000

                     22                     23                     24
                      A                      A                      A
 Frequencies --    847.5404               880.7591               903.5455
 Red. masses --      1.5170                 1.8045                 1.8787
 Frc consts  --      0.6420                 0.8247                 0.9037
 IR Inten    --      0.8780                 0.0000                10.3434

                     25                     26                     27
                      A                      A                      A
 Frequencies --    915.2009               919.8461               922.3003
 Red. masses --      1.5948                 1.4733                 1.8376
 Frc consts  --      0.7871                 0.7345                 0.9210
 IR Inten    --      0.0000                61.9059                 0.0000

                     28                     29                     30
                      A                      A                      A
 Frequencies --    942.6587               965.0558               967.9686
 Red. masses --      1.1611                 1.5076                 1.1386
 Frc consts  --      0.6079                 0.8273                 0.6286
 IR Inten    --      0.0000                 0.0000                 2.5845

                     31                     32                     33
                      A                      A                      A
 Frequencies --    968.2962               998.4178              1029.2233
 Red. masses --      1.4821                 1.1106                 1.0967
 Frc consts  --      0.8187                 0.6523                 0.6845
 IR Inten    --      1.6144                 0.0000                 1.9809

                     34                     35                     36
                      A                      A                      A
 Frequencies --   1052.5018              1061.7684              1162.1656
 Red. masses --      1.0938                 1.0892                 2.1707
 Frc consts  --      0.7139                 0.7234                 1.7274
 IR Inten    --      0.0000               123.8304                 0.0000

                     37                     38                     39
                      A                      A                      A
 Frequencies --   1168.6139              1185.6010              1206.9767
 Red. masses --      3.6692                 1.4571                 2.3784
 Frc consts  --      2.9523                 1.2067                 2.0414
 IR Inten    --      0.2570                30.8696                 0.0000

                     40                     41                     42
                      A                      A                      A
 Frequencies --   1210.6923              1243.2538              1274.1132
 Red. masses --      2.1078                 1.3757                 1.2857
 Frc consts  --      1.8203                 1.2528                 1.2297
 IR Inten    --      0.0000                28.3109                 0.0000

                     43                     44                     45
                      A                      A                      A
 Frequencies --   1307.9298              1321.5167              1323.9786
 Red. masses --      1.3233                 1.3927                 1.5764
 Frc consts  --      1.3337                 1.4330                 1.6281
 IR Inten    --     11.3113                 0.0000                15.4758

                     46                     47                     48
                      A                      A                      A
 Frequencies --   1326.9917              1330.7684              1334.0649
 Red. masses --      2.2109                 1.3361                 1.3169
 Frc consts  --      2.2938                 1.3941                 1.3809
 IR Inten    --      0.0000                 1.3863                 0.0000

                     49                     50                     51
                      A                      A                      A
 Frequencies --   1339.7822              1378.6835              1461.0090
 Red. masses --      1.2937                 1.4715                 1.2916
 Frc consts  --      1.3682                 1.6479                 1.6244
 IR Inten    --      1.0573                 0.0000                 1.4146

                     52                     53                     54
                      A                      A                      A
 Frequencies --   1470.9637              1617.7346              1641.1844
 Red. masses --      1.3067                 4.4589                 3.8487
 Frc consts  --      1.6658                 6.8753                 6.1077
 IR Inten    --      0.0000                 2.9436                 0.0000

                     55                     56                     57
                      A                      A                      A
 Frequencies --   1659.9797              1689.3030              1695.0215
 Red. masses --      4.2680                 4.7460                 4.2765
 Frc consts  --      6.9292                 7.9799                 7.2391
 IR Inten    --      0.0000                 3.0836                23.3685

                     58                     59                     60
                      A                      A                      A
 Frequencies --   1705.5600              3137.2851              3138.0625
 Red. masses --      4.6257                 1.0883                 1.0884
 Frc consts  --      7.9279                 6.3110                 6.3149
 IR Inten    --      0.0000                 0.0000                 3.0289

                     61                     62                     63
                      A                      A                      A
 Frequencies --   3139.7982              3140.3288              3141.8368
 Red. masses --      1.0877                 1.0895                 1.0891
 Frc consts  --      6.3178                 6.3303                 6.3344
 IR Inten    --      0.0000                11.4893                 0.0000

                     64                     65                     66
                      A                      A                      A
 Frequencies --   3142.6538              3146.5224              3150.1869
 Red. masses --      1.0874                 1.0869                 1.0854
 Frc consts  --      6.3272                 6.3400                 6.3464
 IR Inten    --      5.6296                 0.0000                 2.5367

                     67                     68                     69
                      A                      A                      A
 Frequencies --   3153.0002              3154.5669              3158.5819
 Red. masses --      1.0844                 1.0848                 1.0669
 Frc consts  --      6.3516                 6.3602                 6.2712
 IR Inten    --      0.0000               167.1239                19.5351

                     70                     71                     72
                      A                      A                      A
 Frequencies --   3158.6182              3247.7527              3247.7549
 Red. masses --      1.0673                 1.1158                 1.1158
 Frc consts  --      6.2736                 6.9341                 6.9341
 IR Inten    --      0.0001                 0.0306                28.9754

 - Thermochemistry -
 -------------------
 Temperature   298.150 Kelvin.  Pressure   1.00000 Atm.
 Atom     1 has atomic number  6 and mass  12.00000

 Molecular mass:   158.10955 amu.
 Principal axes and moments of inertia in atomic units:
                           1         2         3
     Eigenvalues --   139.11640********************
           X            1.00000  -0.00090   0.00000
           Y            0.00090   1.00000  -0.00000
           Z           -0.00000   0.00000   1.00000
 This molecule is an asymmetric top.
 Rotational symmetry number  1.
 Rotational temperatures (Kelvin)      0.62260     0.00818     0.00808
 Rotational constants (GHZ):          12.97289     0.17055     0.16833
 Zero-point vibrational energy     576358.4 (Joules/Mol)
                                  137.75297 (Kcal/Mol)
 Warning -- explicit consideration of  19 degrees of freedom as
           vibrations may cause significant error
 Vibrational temperatures:     42.18    57.63   113.16   154.35   165.46
          (Kelvin)            219.43   287.96   293.56   339.11   362.16
                              395.65   447.48   494.42   596.39   599.89
                              652.73   746.18   851.36   870.37   950.79
                              958.78  1219.42  1267.22  1300.00  1316.77
                             1323.45  1326.98  1356.28  1388.50  1392.69
                             1393.16  1436.50  1480.82  1514.32  1527.65
                             1672.10  1681.37  1705.82  1736.57  1741.92
                             1788.76  1833.16  1881.82  1901.37  1904.91
                             1909.25  1914.68  1919.42  1927.65  1983.62
                             2102.07  2116.39  2327.56  2361.30  2388.34
                             2430.53  2438.76  2453.92  4513.85  4514.97
                             4517.47  4518.23  4520.40  4521.58  4527.14
                             4532.42  4536.46  4538.72  4544.49  4544.55
                             4672.79  4672.79

 Zero-point correction=                           0.219523 (Hartree/Particle)
 Thermal correction to Energy=                    0.232752
 Thermal correction to Enthalpy=                  0.233697
 Thermal correction to Gibbs Free Energy=         0.178921
 Sum of electronic and zero-point Energies=           -465.423384
 Sum of electronic and thermal Energies=              -465.410155
 Sum of electronic and thermal Enthalpies=            -465.409210
 Sum of electronic and thermal Free Energies=         -465.463986

                     E (Thermal)             CV                S
                      KCal/Mol        Cal/Mol-Kelvin    Cal/Mol-Kelvin
 Total                  146.054             48.120            115.284
 Electronic               0.000              0.000              0.000
 Translational            0.889              2.981             41.084
 Rotational               0.889              2.981             31.135
 Vibrational            144.277             42.158             43.066
 Vibration     1          0.593              1.984              5.875
 Vibration     2          0.594              1.981              5.256
 Vibration     3          0.600              1.964              3.924
 Vibration     4          0.606              1.943              3.318
 Vibration     5          0.608              1.937              3.183
 Vibration     6          0.619              1.900              2.641
 Vibration     7          0.638              1.840              2.132
 Vibration     8          0.640              1.834              2.096
 Vibration     9          0.655              1.786              1.835
 Vibration    10          0.664              1.760              1.719
 Vibration    11          0.677              1.720              1.565
 Vibration    12          0.700              1.653              1.357
 Vibration    13          0.722              1.588              1.195
 Vibration    14          0.778              1.439              0.911
 Vibration    15          0.780              1.433              0.902
 Vibration    16          0.812              1.353              0.785
 Vibration    17          0.874              1.209              0.613
 Vibration    18          0.949              1.049              0.464
 Vibration    19          0.963              1.021              0.441

 Optimization completed.
    -- Stationary point found.
 Normal termination of Gaussian 16 at Thu Nov  9 19:45:29 2023.
