 Gaussian 16, Revision B.01,
 Gaussian 16:  EM64L-G16RevB.01 20-Dec-2017

 ---------------------------
 # B3LYP/6-31G(d,p) OPT FREQ
 ---------------------------

 -----
 7poly
 -----
 Symbolic Z-matrix:
 Charge =  0 Multiplicity = 1

 SCF Done:  E(RB3LYP) =  -543.039870219     A.U. after   13 cycles
 SCF Done:  E(RB3LYP) =  -543.052726558     A.U. after   12 cycles
 SCF Done:  E(RB3LYP) =  -543.053695649     A.U. after   12 cycles
 SCF Done:  E(RB3LYP) =  -543.053745035     A.U. after    8 cycles
 SCF Done:  E(RB3LYP) =  -543.053748117     A.U. after    7 cycles
 Optimization completed.
    -- Stationary point found.
 Normal termination of Gaussian 16 at Thu Nov  9 19:51:02 2023.

 ----------------------------------------------------------------------
 #N Geom=AllCheck Guess=TCheck SCRF=Check GenChk RB3LYP/6-31G(d,p) Freq
 ----------------------------------------------------------------------

 Structure from the checkpoint file:  "checkpoint.chk"
 -----
 7poly
 -----
 Charge =  0 Multiplicity = 1

                         Standard orientation:
 ---------------------------------------------------------------------
 Center     Atomic      Atomic             Coordinates (Angstroms)
 Number     Number       Type             X           Y           Z
 ---------------------------------------------------------------------
      1          6           0        8.016484   -0.232643   -0.000012
      2          6           0        6.825440    0.390784   -0.000009
      3          6           0        5.546404   -0.283111   -0.000002
      4          6           0        4.347455    0.354356    0.000001
      5          6           0        3.073457   -0.307086    0.000006
      6          6           0        1.872982    0.335952    0.000007
      7          6           0        0.600485   -0.322034    0.000010
      8          6           0       -0.600488    0.322214    0.000010
      9          6           0       -1.872972   -0.335796    0.000008
     10          6           0       -3.073471    0.307196    0.000007
     11          6           0       -4.347434   -0.354315    0.000002
     12          6           0       -5.546426    0.283069   -0.000001
     13          6           0       -6.825409   -0.390928   -0.000009
     14          6           0       -8.016508    0.232392   -0.000013
     15          1           0        8.949560    0.320387   -0.000017
     16          1           0        8.089303   -1.317077   -0.000010
     17          1           0        6.798236    1.480532   -0.000011
     18          1           0        5.563524   -1.373245    0.000001
     19          1           0        4.336846    1.444921   -0.000002
     20          1           0        3.081687   -1.397390    0.000009
     21          1           0        1.866201    1.426413    0.000006
     22          1           0        0.606728   -1.412438    0.000010
     23          1           0       -0.606736    1.412617    0.000010
     24          1           0       -1.866154   -1.426258    0.000006
     25          1           0       -3.081749    1.397499    0.000010
     26          1           0       -4.336752   -1.444880   -0.000001
     27          1           0       -5.563626    1.373202    0.000001
     28          1           0       -6.798109   -1.480674   -0.000011
     29          1           0       -8.089427    1.316820   -0.000011
     30          1           0       -8.949533   -0.320724   -0.000019
 ---------------------------------------------------------------------

 SCF Done:  E(RB3LYP) =  -543.053748117     A.U. after    1 cycles

 The electronic state is 1-A.
 Alpha  occ. eigenvalues --  -10.19484 -10.19467 -10.19453 -10.19417 -10.19409
 Alpha  occ. eigenvalues --  -10.19396 -10.19378 -10.19375 -10.19353 -10.19353
 Alpha  occ. eigenvalues --  -10.19277 -10.19277 -10.18408 -10.18408  -0.83057
 Alpha  occ. eigenvalues --   -0.82079  -0.80558  -0.78517  -0.75987  -0.73033
 Alpha  occ. eigenvalues --   -0.69866  -0.64429  -0.60571  -0.56817  -0.56620
 Alpha  occ. eigenvalues --   -0.55881  -0.54823  -0.54460  -0.48451  -0.48451
 Alpha  occ. eigenvalues --   -0.46438  -0.45579  -0.43994  -0.42278  -0.40953
 Alpha  occ. eigenvalues --   -0.39682  -0.38512  -0.37662  -0.37046  -0.36120
 Alpha  occ. eigenvalues --   -0.35423  -0.35399  -0.34808  -0.34527  -0.34154
 Alpha  occ. eigenvalues --   -0.32184  -0.29507  -0.26152  -0.22184  -0.17867
 Alpha virt. eigenvalues --   -0.07867  -0.03035   0.01721   0.05805   0.08616
 Alpha virt. eigenvalues --    0.08760   0.09935   0.10356   0.10846   0.11869
 Alpha virt. eigenvalues --    0.12654   0.12674   0.14044   0.14670   0.14740

 Mulliken charges:
               1
     1  C   -0.256126
     2  C   -0.029676
     3  C   -0.077170
     4  C   -0.075378
     5  C   -0.078550
     6  C   -0.076829
     7  C   -0.077867
     8  C   -0.077866
     9  C   -0.076831
    10  C   -0.078549
    11  C   -0.075380
    12  C   -0.077169
    13  C   -0.029676
    14  C   -0.256126
    15  H    0.101531
    16  H    0.097236
    17  H    0.081357
    18  H    0.078378
    19  H    0.078318
    20  H    0.078477
    21  H    0.078119
    22  H    0.078182
    23  H    0.078182
    24  H    0.078118
    25  H    0.078477
    26  H    0.078318
    27  H    0.078377
    28  H    0.081357
    29  H    0.097235
    30  H    0.101531
 Sum of Mulliken charges =  -0.00000

 Dipole moment (field-independent basis, Debye):
    X=              0.0002    Y=              0.0000    Z=             -0.0000  Tot=              0.0002
 Quadrupole moment (field-independent basis, Debye-Ang):
   XX=            -78.1974   YY=            -75.3873   ZZ=            -92.2140
   XY=              0.2330   XZ=              0.0000   YZ=              0.0000

  Exact polarizability: 833.339 -48.177 128.802   0.000   0.000  50.874
 Approx polarizability:1349.406-141.268 207.149   0.000  -0.000  76.986

                      1                      2                      3
                      A                      A                      A
 Frequencies --     21.7931                29.6819                58.9670
 Red. masses --      5.0294                 4.6903                 4.7729
 Frc consts  --      0.0014                 0.0024                 0.0098
 IR Inten    --      0.0351                 0.7122                 0.0000

                      4                      5                      6
                      A                      A                      A
 Frequencies --     80.2645                96.9157               118.4102
 Red. masses --      4.2535                 1.9968                 2.7356
 Frc consts  --      0.0161                 0.0111                 0.0226
 IR Inten    --      0.0000                 0.0229                 0.3913

                      7                      8                      9
                      A                      A                      A
 Frequencies --    151.7357               166.1808               203.6104
 Red. masses --      3.8518                 3.2403                 5.5217
 Frc consts  --      0.0522                 0.0527                 0.1349
 IR Inten    --      3.0322                 0.0000                 0.0000

                     10                     11                     12
                      A                      A                      A
 Frequencies --    211.2253               230.6856               239.9415
 Red. masses --      1.7856                 3.2677                 3.5348
 Frc consts  --      0.0469                 0.1025                 0.1199
 IR Inten    --      0.0000                 0.0586                 0.0000

                     13                     14                     15
                      A                      A                      A
 Frequencies --    286.4753               301.4376               334.2409
 Red. masses --      3.1865                 1.7737                 3.1937
 Frc consts  --      0.1541                 0.0950                 0.2102
 IR Inten    --      0.0000                 0.4959                 9.1079

                     16                     17                     18
                      A                      A                      A
 Frequencies --    374.0493               390.0583               427.8076
 Red. masses --      2.0266                 4.9848                 2.9717
 Frc consts  --      0.1671                 0.4468                 0.3204
 IR Inten    --      0.0000                10.7831                 0.1752

                     19                     20                     21
                      A                      A                      A
 Frequencies --    433.9719               520.7353               533.5511
 Red. masses --      2.9069                 2.8986                 3.9976
 Frc consts  --      0.3225                 0.4631                 0.6705
 IR Inten    --      0.0000                 5.9787                 0.0000

                     22                     23                     24
                      A                      A                      A
 Frequencies --    602.6780               615.0262               662.3013
 Red. masses --      3.0207                 3.3140                 1.3552
 Frc consts  --      0.6464                 0.7386                 0.3502
 IR Inten    --      0.0000                 3.9853                 0.0000

                     25                     26                     27
                      A                      A                      A
 Frequencies --    664.4042               842.4139               870.1951
 Red. masses --      1.3933                 1.4543                 1.7185
 Frc consts  --      0.3624                 0.6081                 0.7667
 IR Inten    --      7.0894                 0.0000                 1.6174

                     28                     29                     30
                      A                      A                      A
 Frequencies --    893.1163               908.2931               916.1800
 Red. masses --      1.8957                 1.8502                 1.5820
 Frc consts  --      0.8909                 0.8993                 0.7824
 IR Inten    --      0.0000                15.0189                 0.0000

                     31                     32                     33
                      A                      A                      A
 Frequencies --    919.7644               922.1312               938.0333
 Red. masses --      1.5241                 1.9177                 1.1591
 Frc consts  --      0.7596                 0.9607                 0.6009
 IR Inten    --     55.3300                 0.0000                 1.9588

                     34                     35                     36
                      A                      A                      A
 Frequencies --    958.8616               966.6488               966.8904
 Red. masses --      1.1416                 1.4991                 1.4895
 Frc consts  --      0.6184                 0.8253                 0.8204
 IR Inten    --      0.0000                 1.6864                 0.0000

                     37                     38                     39
                      A                      A                      A
 Frequencies --    984.1773              1011.7001              1036.8650
 Red. masses --      1.1176                 1.1001                 1.0937
 Frc consts  --      0.6378                 0.6634                 0.6927
 IR Inten    --      2.1740                 0.0000                 1.5943

                     40                     41                     42
                      A                      A                      A
 Frequencies --   1054.7519              1061.6679              1160.4833
 Red. masses --      1.0925                 1.0886                 2.9478
 Frc consts  --      0.7161                 0.7229                 2.3390
 IR Inten    --      0.0000               148.8171                 0.2798

                     43                     44                     45
                      A                      A                      A
 Frequencies --   1167.8933              1182.0684              1188.9989
 Red. masses --      1.9396                 3.8005                 1.3985
 Frc consts  --      1.5587                 3.1288                 1.1649
 IR Inten    --      0.0000                 0.0000                38.8904

                     46                     47                     48
                      A                      A                      A
 Frequencies --   1203.7574              1217.0255              1236.7208
 Red. masses --      1.7145                 2.9547                 1.3831
 Frc consts  --      1.4637                 2.5785                 1.2464
 IR Inten    --      0.0000                 0.0167                39.3101

                     49                     50                     51
                      A                      A                      A
 Frequencies --   1263.1764              1291.0063              1316.5721
 Red. masses --      1.3010                 1.2655                 1.4002
 Frc consts  --      1.2231                 1.2427                 1.4300
 IR Inten    --      0.0000                 9.7440                 0.0000

                     52                     53                     54
                      A                      A                      A
 Frequencies --   1322.1851              1324.8470              1326.4475
 Red. masses --      1.6604                 1.4359                 1.8512
 Frc consts  --      1.7102                 1.4850                 1.9190
 IR Inten    --     36.1435                 2.7349                 0.0000

                     55                     56                     57
                      A                      A                      A
 Frequencies --   1328.7692              1333.8567              1335.7309
 Red. masses --      1.6544                 1.3475                 1.3001
 Frc consts  --      1.7210                 1.4125                 1.3666
 IR Inten    --      0.0000                 0.0000                 1.4288

                     58                     59                     60
                      A                      A                      A
 Frequencies --   1343.5598              1390.9368              1462.8047
 Red. masses --      1.3026                 1.5343                 1.2964
 Frc consts  --      1.3854                 1.7489                 1.6345
 IR Inten    --      0.0000                 1.0791                 0.0000

                     61                     62                     63
                      A                      A                      A
 Frequencies --   1469.9926              1610.2581              1623.5435
 Red. masses --      1.3148                 4.5740                 3.5774
 Frc consts  --      1.6740                 6.9877                 5.5558
 IR Inten    --      1.4423                 0.0000                 0.0000

                     64                     65                     66
                      A                      A                      A
 Frequencies --   1649.4549              1679.6382              1679.8837
 Red. masses --      4.3244                 4.4787                 4.4669
 Frc consts  --      6.9320                 7.4445                 7.4270
 IR Inten    --      7.3565                 3.8175                 0.0000

                     67                     68                     69
                      A                      A                      A
 Frequencies --   1700.2198              1702.6125              3137.2433
 Red. masses --      4.5075                 4.5932                 1.0883
 Frc consts  --      7.6771                 7.8450                 6.3108
 IR Inten    --     21.7056                 0.0000                 1.2659

                     70                     71                     72
                      A                      A                      A
 Frequencies --   3137.4718              3138.6335              3139.8646
 Red. masses --      1.0885                 1.0886                 1.0886
 Frc consts  --      6.3129                 6.3180                 6.3233
 IR Inten    --      0.0000                 4.8432                 0.0000

                     73                     74                     75
                      A                      A                      A
 Frequencies --   3141.0282              3141.0308              3142.4193
 Red. masses --      1.0873                 1.0911                 1.0879
 Frc consts  --      6.3205                 6.3422                 6.3297
 IR Inten    --     25.6846                 0.1315                 0.0000

                     76                     77                     78
                      A                      A                      A
 Frequencies --   3145.1429              3148.4304              3151.2696
 Red. masses --      1.0875                 1.0863                 1.0852
 Frc consts  --      6.3383                 6.3445                 6.3492
 IR Inten    --      2.3114                 0.0000                 3.6571

                     79                     80                     81
                      A                      A                      A
 Frequencies --   3153.4351              3154.5812              3158.5945
 Red. masses --      1.0846                 1.0849                 1.0667
 Frc consts  --      6.3544                 6.3610                 6.2705
 IR Inten    --      0.0000               211.7592                22.6536

                     82                     83                     84
                      A                      A                      A
 Frequencies --   3158.6230              3247.8096              3247.8109
 Red. masses --      1.0670                 1.1158                 1.1158
 Frc consts  --      6.2722                 6.9343                 6.9344
 IR Inten    --      0.0077                 4.9969                24.3802

 - Thermochemistry -
 -------------------
 Temperature   298.150 Kelvin.  Pressure   1.00000 Atm.
 Atom     1 has atomic number  6 and mass  12.00000

 Molecular mass:   184.12520 amu.
 Principal axes and moments of inertia in atomic units:
                           1         2         3
     Eigenvalues --   162.66130********************
           X            1.00000  -0.00068   0.00000
           Y            0.00068   1.00000   0.00000
           Z           -0.00000  -0.00000   1.00000
 This molecule is an asymmetric top.
 Rotational symmetry number  1.
 Rotational temperatures (Kelvin)      0.53248     0.00518     0.00513
 Rotational constants (GHZ):          11.09509     0.10786     0.10682
 Zero-point vibrational energy     664308.3 (Joules/Mol)
                                  158.77349 (Kcal/Mol)
 Warning -- explicit consideration of  23 degrees of freedom as
           vibrations may cause significant error
 Vibrational temperatures:     31.36    42.71    84.84   115.48   139.44
          (Kelvin)            170.37   218.31   239.10   292.95   303.91
                              331.91   345.22   412.17   433.70   480.90
                              538.17   561.21   615.52   624.39   749.22
                              767.66   867.12   884.89   952.90   955.93
                             1212.05  1252.02  1285.00  1306.83  1318.18
                             1323.34  1326.74  1349.62  1379.59  1390.79
                             1391.14  1416.01  1455.61  1491.82  1517.55
                             1527.50  1669.68  1680.34  1700.73  1710.70
                             1731.94  1751.03  1779.37  1817.43  1857.47
                             1894.25  1902.33  1906.16  1908.46  1911.80
                             1919.12  1921.82  1933.08  2001.25  2104.65
                             2114.99  2316.80  2335.92  2373.20  2416.62
                             2416.98  2446.24  2449.68  4513.79  4514.12
                             4515.79  4517.56  4519.24  4519.24  4521.24
                             4525.16  4529.89  4533.97  4537.09  4538.74
                             4544.51  4544.55  4672.87  4672.88

 Zero-point correction=                           0.253022 (Hartree/Particle)
 Thermal correction to Energy=                    0.268440
 Thermal correction to Enthalpy=                  0.269384
 Thermal correction to Gibbs Free Energy=         0.208954
 Sum of electronic and zero-point Energies=           -542.800726
 Sum of electronic and thermal Energies=              -542.785308
 Sum of electronic and thermal Enthalpies=            -542.784364
 Sum of electronic and thermal Free Energies=         -542.844794

                     E (Thermal)             CV                S
                      KCal/Mol        Cal/Mol-Kelvin    Cal/Mol-Kelvin
 Total                  168.449             56.197            127.186
 Electronic               0.000              0.000              0.000
 Translational            0.889              2.981             41.538
 Rotational               0.889              2.981             32.197
 Vibrational            166.671             50.236             53.451
 Vibration     1          0.593              1.985              6.464
 Vibration     2          0.593              1.984              5.851
 Vibration     3          0.596              1.974              4.491
 Vibration     4          0.600              1.963              3.884
 Vibration     5          0.603              1.951              3.515
 Vibration     6          0.609              1.934              3.126
 Vibration     7          0.619              1.901              2.650
 Vibration     8          0.624              1.884              2.478
 Vibration     9          0.639              1.835              2.100
 Vibration    10          0.643              1.824              2.033
 Vibration    11          0.652              1.794              1.874
 Vibration    12          0.657              1.779              1.803
 Vibration    13          0.684              1.699              1.495
 Vibration    14          0.693              1.671              1.409
 Vibration    15          0.716              1.607              1.240
 Vibration    16          0.745              1.525              1.063
 Vibration    17          0.758              1.491              1.000
 Vibration    18          0.789              1.410              0.866
 Vibration    19          0.795              1.396              0.846
 Vibration    20          0.876              1.204              0.608
 Vibration    21          0.889              1.176              0.579
 Vibration    22          0.961              1.026              0.445
 Vibration    23          0.975              1.000              0.425

                           ! Non-Optimized Parameters !
 Normal termination of Gaussian 16 at Thu Nov  9 20:05:05 2023.
