 Gaussian 16, Revision B.01,
 Gaussian 16:  EM64L-G16RevB.01 20-Dec-2017

 ---------------------------
 # B3LYP/6-31G(d,p) OPT FREQ
 ---------------------------

 -----
 8poly
 -----
 Symbolic Z-matrix:
 Charge =  0 Multiplicity = 1

 SCF Done:  E(RB3LYP) =  -620.443553278     A.U. after   13 cycles
 SCF Done:  E(RB3LYP) =  -620.457601718     A.U. after   12 cycles
 SCF Done:  E(RB3LYP) =  -620.458861856     A.U. after   12 cycles
 SCF Done:  E(RB3LYP) =  -620.458927888     A.U. after    9 cycles
 SCF Done:  E(RB3LYP) =  -620.458932414     A.U. after    8 cycles
 SCF Done:  E(RB3LYP) =  -620.458932553     A.U. after    6 cycles
 Optimization completed.
    -- Stationary point found.
 Normal termination of Gaussian 16 at Fri Oct 27 17:06:59 2023.

 ----------------------------------------------------------------------
 #N Geom=AllCheck Guess=TCheck SCRF=Check GenChk RB3LYP/6-31G(d,p) Freq
 ----------------------------------------------------------------------

 Structure from the checkpoint file:  "./chk/../chk/../chk/../chk/../chk/8.chk"
 -----
 8poly
 -----
 Charge =  0 Multiplicity = 1

                         Standard orientation:
 ---------------------------------------------------------------------
 Center     Atomic      Atomic             Coordinates (Angstroms)
 Number     Number       Type             X           Y           Z
 ---------------------------------------------------------------------
      1          6           0       -8.516433    1.207284    0.000152
      2          6           0       -8.161394   -0.089252   -0.000060
      3          6           0       -6.813926   -0.644431   -0.000027
      4          6           0       -5.643789    0.044955   -0.000059
      5          6           0       -4.349321   -0.572436   -0.000005
      6          6           0       -3.170368    0.111587   -0.000046
      7          6           0       -1.877525   -0.502269    0.000009
      8          6           0       -0.698059    0.183297   -0.000032
      9          6           0        0.594432   -0.429671    0.000021
     10          6           0        1.773801    0.255816   -0.000023
     11          6           0        3.066874   -0.358278    0.000029
     12          6           0        4.245546    0.325228   -0.000018
     13          6           0        5.540477   -0.293005    0.000033
     14          6           0        6.717747    0.384309   -0.000016
     15          6           0        8.018153   -0.246843    0.000036
     16          6           0        9.188091    0.415576   -0.000012
     17          1           0       -7.788861    2.013779    0.000409
     18          1           0       -8.959945   -0.829750   -0.000267
     19          1           0       -6.754317   -1.732118    0.000013
     20          1           0       -5.663393    1.134437   -0.000143
     21          1           0       -4.320447   -1.662435    0.000075
     22          1           0       -3.201064    1.201571   -0.000123
     23          1           0       -1.845950   -1.592180    0.000090
     24          1           0       -0.729957    1.273228   -0.000110
     25          1           0        0.626286   -1.519611    0.000103
     26          1           0        1.742451    1.345722   -0.000104
     27          1           0        3.097338   -1.448306    0.000112
     28          1           0        4.216859    1.415130   -0.000100
     29          1           0        5.566500   -1.383277    0.000116
     30          1           0        6.698528    1.474352   -0.000098
     31          1           0        8.027047   -1.336870    0.000119
     32          1           0        9.225209    1.501799   -0.000095
     33          1           0       10.138804   -0.106557    0.000030
     34          1           0       -9.560931    1.499885    0.000085
 ---------------------------------------------------------------------

 SCF Done:  E(RB3LYP) =  -620.458932553     A.U. after    1 cycles

 The electronic state is 1-A.
 Alpha  occ. eigenvalues --  -10.19494 -10.19480 -10.19465 -10.19456 -10.19422
 Alpha  occ. eigenvalues --  -10.19411 -10.19399 -10.19386 -10.19380 -10.19353
 Alpha  occ. eigenvalues --  -10.19344 -10.19331 -10.19279 -10.19237 -10.18409
 Alpha  occ. eigenvalues --  -10.18344  -0.83136  -0.82344  -0.81115  -0.79482
 Alpha  occ. eigenvalues --   -0.77464  -0.75058  -0.72323  -0.69536  -0.64839
 Alpha  occ. eigenvalues --   -0.61848  -0.58571  -0.56678  -0.56021  -0.55313
 Alpha  occ. eigenvalues --   -0.54821  -0.52979  -0.49026  -0.48268  -0.47272
 Alpha  occ. eigenvalues --   -0.45660  -0.45055  -0.43231  -0.42378  -0.40890
 Alpha  occ. eigenvalues --   -0.39656  -0.38736  -0.37623  -0.37072  -0.36067
 Alpha  occ. eigenvalues --   -0.35491  -0.35473  -0.35227  -0.34933  -0.34585
 Alpha  occ. eigenvalues --   -0.34485  -0.32907  -0.30790  -0.28142  -0.24967
 Alpha  occ. eigenvalues --   -0.21322  -0.17477
 Alpha virt. eigenvalues --   -0.08332  -0.04204   0.00050   0.04081   0.07465
 Alpha virt. eigenvalues --    0.08482   0.09470   0.09754   0.10750   0.10868
 Alpha virt. eigenvalues --    0.11309   0.11430   0.12626   0.13169   0.14379

 Mulliken charges:
               1
     1  C   -0.242101
     2  C   -0.044313
     3  C   -0.103341
     4  C   -0.050907
     5  C   -0.078058
     6  C   -0.079134
     7  C   -0.077783
     8  C   -0.077456
     9  C   -0.077683
    10  C   -0.078089
    11  C   -0.076740
    12  C   -0.078639
    13  C   -0.075357
    14  C   -0.077170
    15  C   -0.029704
    16  C   -0.256152
    17  H    0.096349
    18  H    0.083981
    19  H    0.079820
    20  H    0.077984
    21  H    0.078480
    22  H    0.078250
    23  H    0.078162
    24  H    0.078130
    25  H    0.078096
    26  H    0.078225
    27  H    0.078091
    28  H    0.078518
    29  H    0.078312
    30  H    0.078415
    31  H    0.081349
    32  H    0.097251
    33  H    0.101528
    34  H    0.101683
 Sum of Mulliken charges =   0.00000

 Dipole moment (field-independent basis, Debye):
    X=             -0.0153    Y=             -0.0985    Z=             -0.0000  Tot=              0.0997
 Quadrupole moment (field-independent basis, Debye-Ang):
   XX=            -88.7198   YY=            -85.9200   ZZ=           -105.0570
   XY=              0.4967   XZ=              0.0004   YZ=             -0.0007

  Exact polarizability:1065.664  39.294 155.770  -0.005  -0.002  57.725
 Approx polarizability:1704.127 139.341 259.972  -0.013  -0.003  87.676

 ******    1 imaginary frequencies (negative Signs) ******

                      1                      2                      3
                      A                      A                      A
 Frequencies --    -38.4632                18.3703                23.2831
 Red. masses --      1.8025                 4.7850                 4.9164
 Frc consts  --      0.0016                 0.0010                 0.0016
 IR Inten    --      0.0309                 0.0430                 0.5392

                      4                      5                      6
                      A                      A                      A
 Frequencies --     50.2842                63.3648                95.3473
 Red. masses --      4.5502                 4.5089                 1.6759
 Frc consts  --      0.0068                 0.0107                 0.0090
 IR Inten    --      0.0052                 0.0327                 0.1068

                      7                      8                      9
                      A                      A                      A
 Frequencies --     97.9261               118.7584               158.4926
 Red. masses --      4.0805                 4.1854                 3.8900
 Frc consts  --      0.0231                 0.0348                 0.0576
 IR Inten    --      0.2473                 0.9356                 0.0000

                     10                     11                     12
                      A                      A                      A
 Frequencies --    173.2986               187.5533               198.6818
 Red. masses --      4.9281                 1.8305                 4.2783
 Frc consts  --      0.0872                 0.0379                 0.0995
 IR Inten    --      1.1968                 0.0208                 1.0087

                     13                     14                     15
                      A                      A                      A
 Frequencies --    229.0610               264.6799               268.0282
 Red. masses --      3.0255                 2.1989                 3.7809
 Frc consts  --      0.0935                 0.0908                 0.1600
 IR Inten    --      0.1836                 0.3727                 0.7505

                     16                     17                     18
                      A                      A                      A
 Frequencies --    294.1324               329.0022               333.9202
 Red. masses --      2.5195                 3.9091                 1.9843
 Frc consts  --      0.1284                 0.2493                 0.1304
 IR Inten    --      0.1440                21.2691                 0.0653

                     19                     20                     21
                      A                      A                      A
 Frequencies --    383.9735               386.4511               427.0937
 Red. masses --      4.1925                 2.2518                 3.2844
 Frc consts  --      0.3642                 0.1981                 0.3530
 IR Inten    --      0.8239                 0.3858                 0.5244

                     22                     23                     24
                      A                      A                      A
 Frequencies --    430.3345               507.5654               520.6905
 Red. masses --      3.2331                 3.2008                 3.8208
 Frc consts  --      0.3528                 0.4858                 0.6103
 IR Inten    --      0.0000                10.6511                 7.3088

                     25                     26                     27
                      A                      A                      A
 Frequencies --    589.6946               609.6709               642.2725
 Red. masses --      2.9454                 3.4129                 1.5296
 Frc consts  --      0.6035                 0.7474                 0.3718
 IR Inten    --      1.9858                 1.1666                 5.7323

                     28                     29                     30
                      A                      A                      A
 Frequencies --    642.9830               663.0900               837.1095
 Red. masses --      2.7388                 1.3734                 1.4093
 Frc consts  --      0.6671                 0.3558                 0.5819
 IR Inten    --     10.1807                 3.3933                 0.1216

                     31                     32                     33
                      A                      A                      A
 Frequencies --    858.0614               881.0854               899.3206
 Red. masses --      1.6369                 1.8557                 1.9856
 Frc consts  --      0.7101                 0.8488                 0.9462
 IR Inten    --      0.1909                 0.5827                 1.2656

                     34                     35                     36
                      A                      A                      A
 Frequencies --    911.4092               913.7348               918.0175
 Red. masses --      1.8472                 1.4513                 1.7215
 Frc consts  --      0.9040                 0.7139                 0.8548
 IR Inten    --     15.1725                19.8683                24.2070

                     37                     38                     39
                      A                      A                      A
 Frequencies --    921.3253               934.2986               953.3824
 Red. masses --      1.9644                 1.1533                 1.1319
 Frc consts  --      0.9824                 0.5931                 0.6062
 IR Inten    --      8.2801                 0.1056                 1.7706

                     40                     41                     42
                      A                      A                      A
 Frequencies --    966.8510               977.7982               997.5372
 Red. masses --      1.4936                 1.1096                 2.5987
 Frc consts  --      0.8226                 0.6251                 1.5236
 IR Inten    --      0.9009                 0.0153                 1.9274

                     43                     44                     45
                      A                      A                      A
 Frequencies --   1004.9717              1030.2413              1035.0208
 Red. masses --      1.0947                 1.0896                 1.1215
 Frc consts  --      0.6514                 0.6814                 0.7079
 IR Inten    --      4.0606                 3.6588                 9.0517

                     46                     47                     48
                      A                      A                      A
 Frequencies --   1049.7169              1060.0833              1073.3173
 Red. masses --      1.0885                 1.0882                 1.5527
 Frc consts  --      0.7067                 0.7205                 1.0539
 IR Inten    --     16.8780               140.4080                25.4129

                     49                     50                     51
                      A                      A                      A
 Frequencies --   1164.6706              1171.9235              1184.0159
 Red. masses --      2.5483                 2.3609                 2.1437
 Frc consts  --      2.0366                 1.9104                 1.7706
 IR Inten    --      0.0043                 2.5732                 6.8536

                     52                     53                     54
                      A                      A                      A
 Frequencies --   1193.7025              1202.3110              1222.0904
 Red. masses --      1.5549                 2.1737                 2.1484
 Frc consts  --      1.3054                 1.8513                 1.8905
 IR Inten    --     18.7873                 1.9072                 1.2347

                     55                     56                     57
                      A                      A                      A
 Frequencies --   1232.4550              1254.1947              1279.7246
 Red. masses --      1.5571                 1.3374                 1.2706
 Frc consts  --      1.3935                 1.2395                 1.2260
 IR Inten    --     13.8227                14.4596                 0.0775

                     58                     59                     60
                      A                      A                      A
 Frequencies --   1307.2421              1318.1877              1322.7135
 Red. masses --      1.3646                 1.4322                 1.6920
 Frc consts  --      1.3739                 1.4662                 1.7442
 IR Inten    --     11.9178                 6.3679                18.8059

                     61                     62                     63
                      A                      A                      A
 Frequencies --   1324.0256              1326.1677              1328.3649
 Red. masses --      1.5194                 1.7582                 1.6448
 Frc consts  --      1.5693                 1.8218                 1.7100
 IR Inten    --      4.3552                 6.0901                 0.4700

                     64                     65                     66
                      A                      A                      A
 Frequencies --   1333.3588              1336.5539              1358.6748
 Red. masses --      1.3434                 1.3057                 1.3621
 Frc consts  --      1.4072                 1.3743                 1.4814
 IR Inten    --      1.7679                 1.8429                 0.2119

                     67                     68                     69
                      A                      A                      A
 Frequencies --   1366.8388              1411.6848              1465.8575
 Red. masses --      1.3721                 1.6434                 1.2633
 Frc consts  --      1.5103                 1.9296                 1.5994
 IR Inten    --      6.7924                 7.5895                 8.1084

                     70                     71                     72
                      A                      A                      A
 Frequencies --   1467.2468              1601.7657              1606.9357
 Red. masses --      1.3118                 3.4043                 4.4919
 Frc consts  --      1.6638                 5.1461                 6.8340
 IR Inten    --      3.4005                 8.3255                 0.0092

                     73                     74                     75
                      A                      A                      A
 Frequencies --   1644.7441              1654.8759              1676.9036
 Red. masses --      4.5798                 4.0973                 4.6574
 Frc consts  --      7.2994                 6.6112                 7.7163
 IR Inten    --     24.0164                 7.7984                 0.3494

                     76                     77                     78
                      A                      A                      A
 Frequencies --   1683.8164              1700.2485              1702.9594
 Red. masses --      4.5286                 4.4864                 4.0368
 Frc consts  --      7.5649                 7.6414                 6.8976
 IR Inten    --      2.9102                13.8004                 0.8730

                     79                     80                     81
                      A                      A                      A
 Frequencies --   3137.7190              3138.1195              3139.2080
 Red. masses --      1.0884                 1.0886                 1.0888
 Frc consts  --      6.3133                 6.3162                 6.3218
 IR Inten    --      1.1205                 0.0144                 6.2031

                     82                     83                     84
                      A                      A                      A
 Frequencies --   3140.0798              3141.1519              3141.6666
 Red. masses --      1.0895                 1.0889                 1.0898
 Frc consts  --      6.3293                 6.3301                 6.3374
 IR Inten    --      0.6632                11.3273                11.2277

                     85                     86                     87
                      A                      A                      A
 Frequencies --   3143.0890              3143.5008              3146.2809
 Red. masses --      1.0886                 1.0875                 1.0873
 Frc consts  --      6.3365                 6.3317                 6.3417
 IR Inten    --      6.8655                10.4737                 3.9566

                     88                     89                     90
                      A                      A                      A
 Frequencies --   3149.5685              3152.3347              3154.1262
 Red. masses --      1.0861                 1.0847                 1.0825
 Frc consts  --      6.3480                 6.3505                 6.3449
 IR Inten    --      3.3299                 3.1092                13.9011

                     91                     92                     93
                      A                      A                      A
 Frequencies --   3154.8867              3158.7173              3160.4982
 Red. masses --      1.0841                 1.0669                 1.0749
 Frc consts  --      6.3572                 6.2720                 6.3262
 IR Inten    --    213.7438                12.6767                58.8255

                     94                     95                     96
                      A                      A                      A
 Frequencies --   3165.3381              3247.4972              3247.8887
 Red. masses --      1.0805                 1.1158                 1.1158
 Frc consts  --      6.3784                 6.9332                 6.9348
 IR Inten    --     23.7124                16.5482                14.8852

 - Thermochemistry -
 -------------------
 Temperature   298.150 Kelvin.  Pressure   1.00000 Atm.
 Atom     1 has atomic number  6 and mass  12.00000

 Molecular mass:   210.14085 amu.
 Principal axes and moments of inertia in atomic units:
                           1         2         3
     Eigenvalues --   277.82533********************
           X            1.00000  -0.00072  -0.00000
           Y            0.00072   1.00000  -0.00001
           Z            0.00000   0.00001   1.00000
 This molecule is an asymmetric top.
 Rotational symmetry number  1.
 Rotational temperatures (Kelvin)      0.31176     0.00358     0.00354
 Rotational constants (GHZ):           6.49596     0.07456     0.07372
    1 imaginary frequencies ignored.
 Zero-point vibrational energy     751477.4 (Joules/Mol)
                                  179.60741 (Kcal/Mol)
 Warning -- explicit consideration of  25 degrees of freedom as
           vibrations may cause significant error
 Vibrational temperatures:     26.43    33.50    72.35    91.17   137.18
          (Kelvin)            140.89   170.87   228.04   249.34   269.85
                              285.86   329.57   380.82   385.63   423.19
                              473.36   480.44   552.45   556.02   614.49
                              619.16   730.27   749.16   848.44   877.18
                              924.09   925.11   954.04  1204.41  1234.56
                             1267.69  1293.92  1311.31  1314.66  1320.82
                             1325.58  1344.25  1371.70  1391.08  1406.83
                             1435.23  1445.93  1482.29  1489.16  1510.31
                             1525.22  1544.26  1675.70  1686.14  1703.53
                             1717.47  1729.86  1758.32  1773.23  1804.51
                             1841.24  1880.83  1896.58  1903.09  1904.98
                             1908.06  1911.22  1918.41  1923.00  1954.83
                             1966.58  2031.10  2109.04  2111.04  2304.58
                             2312.02  2366.42  2381.00  2412.69  2422.64
                             2446.28  2450.18  4514.48  4515.05  4516.62
                             4517.87  4519.42  4520.16  4522.20  4522.80
                             4526.80  4531.53  4535.51  4538.08  4539.18
                             4544.69  4547.25  4554.22  4672.42  4672.99

 Zero-point correction=                           0.286223 (Hartree/Particle)
 Thermal correction to Energy=                    0.303180
 Thermal correction to Enthalpy=                  0.304124
 Thermal correction to Gibbs Free Energy=         0.239417
 Sum of electronic and zero-point Energies=           -620.172710
 Sum of electronic and thermal Energies=              -620.155753
 Sum of electronic and thermal Enthalpies=            -620.154809
 Sum of electronic and thermal Free Energies=         -620.219516

                     E (Thermal)             CV                S
                      KCal/Mol        Cal/Mol-Kelvin    Cal/Mol-Kelvin
 Total                  190.248             62.383            136.187
 Electronic               0.000              0.000              0.000
 Translational            0.889              2.981             41.932
 Rotational               0.889              2.981             33.465
 Vibrational            188.471             56.421             60.791
 Vibration     1          0.593              1.986              6.803
 Vibration     2          0.593              1.985              6.332
 Vibration     3          0.595              1.977              4.806
 Vibration     4          0.597              1.972              4.350
 Vibration     5          0.603              1.953              3.547
 Vibration     6          0.603              1.951              3.495
 Vibration     7          0.609              1.934              3.120
 Vibration     8          0.621              1.893              2.568
 Vibration     9          0.627              1.875              2.399
 Vibration    10          0.632              1.857              2.252
 Vibration    11          0.637              1.842              2.145
 Vibration    12          0.652              1.797              1.886
 Vibration    13          0.671              1.738              1.631
 Vibration    14          0.673              1.732              1.609
 Vibration    15          0.689              1.685              1.450
 Vibration    16          0.712              1.618              1.265
 Vibration    17          0.715              1.608              1.241
 Vibration    18          0.753              1.504              1.023
 Vibration    19          0.755              1.499              1.014
 Vibration    20          0.789              1.411              0.868
 Vibration    21          0.792              1.404              0.858
 Vibration    22          0.863              1.233              0.639
 Vibration    23          0.876              1.204              0.608
 Vibration    24          0.947              1.054              0.468
 Vibration    25          0.969              1.011              0.433

 Optimization completed.
    -- Stationary point found.
 Normal termination of Gaussian 16 at Fri Oct 27 17:40:06 2023.
