 Gaussian 16, Revision B.01,
 Gaussian 16:  EM64L-G16RevB.01 20-Dec-2017

 ---------------------------
 # B3LYP/6-31G(d,p) OPT FREQ
 ---------------------------

 -----
 9poly
 -----
 Symbolic Z-matrix:
 Charge =  0 Multiplicity = 1

 SCF Done:  E(RB3LYP) =  -697.846829707     A.U. after   13 cycles
 SCF Done:  E(RB3LYP) =  -697.862250572     A.U. after   12 cycles
 SCF Done:  E(RB3LYP) =  -697.863838086     A.U. after   12 cycles
 SCF Done:  E(RB3LYP) =  -697.863922989     A.U. after    9 cycles
 SCF Done:  E(RB3LYP) =  -697.863929548     A.U. after    8 cycles
 SCF Done:  E(RB3LYP) =  -697.863929736     A.U. after    6 cycles
 Optimization completed.
    -- Stationary point found.
 Normal termination of Gaussian 16 at Fri Oct 27 18:01:21 2023.

 ----------------------------------------------------------------------
 #N Geom=AllCheck Guess=TCheck SCRF=Check GenChk RB3LYP/6-31G(d,p) Freq
 ----------------------------------------------------------------------

 Structure from the checkpoint file:  "./chk/9.chk"
 -----
 9poly
 -----
 Charge =  0 Multiplicity = 1

                         Standard orientation:
 ---------------------------------------------------------------------
 Center     Atomic      Atomic             Coordinates (Angstroms)
 Number     Number       Type             X           Y           Z
 ---------------------------------------------------------------------
      1          6           0       -9.898591    0.524156    0.001560
      2          6           0       -8.773062    1.259442   -0.000529
      3          6           0       -7.393606    0.787177   -0.000685
      4          6           0       -6.980387   -0.506400   -0.000228
      5          6           0       -5.618833   -0.990819   -0.000233
      6          6           0       -4.471525   -0.253987   -0.000113
      7          6           0       -3.159835   -0.823372   -0.000191
      8          6           0       -2.003043   -0.098005   -0.000057
      9          6           0       -0.692050   -0.666713   -0.000135
     10          6           0        0.464838    0.058685   -0.000005
     11          6           0        1.776019   -0.510331   -0.000083
     12          6           0        2.932589    0.214264    0.000046
     13          6           0        4.244713   -0.356446   -0.000034
     14          6           0        5.400503    0.365774    0.000094
     15          6           0        6.714823   -0.209316    0.000011
     16          6           0        7.869311    0.506475    0.000137
     17          6           0        9.189662   -0.081504    0.000051
     18          6           0       10.337242    0.619051    0.000175
     19          1           0       -9.890048   -0.561913    0.003598
     20          1           0       -8.882094    2.343094   -0.002261
     21          1           0       -6.639414    1.571782   -0.001350
     22          1           0       -7.742244   -1.283987    0.000088
     23          1           0       -5.509233   -2.074695   -0.000318
     24          1           0       -4.530325    0.833828    0.000082
     25          1           0       -3.091606   -1.911674   -0.000367
     26          1           0       -2.071822    0.990212    0.000119
     27          1           0       -0.622994   -1.754918   -0.000307
     28          1           0        0.395993    1.146891    0.000171
     29          1           0        1.844513   -1.598595   -0.000256
     30          1           0        2.864866    1.302506    0.000223
     31          1           0        4.311394   -1.444864   -0.000209
     32          1           0        5.335738    1.454122    0.000271
     33          1           0        6.776851   -1.298134   -0.000166
     34          1           0        7.814164    1.595287    0.000316
     35          1           0        9.234446   -1.170648   -0.000126
     36          1           0       10.338634    1.705905    0.000353
     37          1           0       11.304598    0.128446    0.000102
     38          1           0      -10.874030    0.998574    0.001339
 ---------------------------------------------------------------------

 SCF Done:  E(RB3LYP) =  -697.863929736     A.U. after    1 cycles

 The electronic state is 1-A.
 Alpha  occ. eigenvalues --  -10.19512 -10.19501 -10.19489 -10.19474 -10.19451
 Alpha  occ. eigenvalues --  -10.19439 -10.19427 -10.19417 -10.19408 -10.19392
 Alpha  occ. eigenvalues --  -10.19374 -10.19361 -10.19336 -10.19311 -10.19290
 Alpha  occ. eigenvalues --  -10.19197 -10.18418 -10.18311  -0.83197  -0.82528
 Alpha  occ. eigenvalues --   -0.81519  -0.80202  -0.78548  -0.76573  -0.74313
 Alpha  occ. eigenvalues --   -0.71756  -0.69237  -0.65268  -0.62701  -0.59423
 Alpha  occ. eigenvalues --   -0.57012  -0.56596  -0.56055  -0.55218  -0.54704
 Alpha  occ. eigenvalues --   -0.51680  -0.49498  -0.48415  -0.47438  -0.46394
 Alpha  occ. eigenvalues --   -0.45429  -0.43940  -0.43509  -0.41521  -0.41011
 Alpha  occ. eigenvalues --   -0.39614  -0.38852  -0.37898  -0.37261  -0.36509
 Alpha  occ. eigenvalues --   -0.35746  -0.35558  -0.35354  -0.35098  -0.34711
 Alpha  occ. eigenvalues --   -0.34639  -0.34380  -0.33433  -0.31741  -0.29583
 Alpha  occ. eigenvalues --   -0.26980  -0.23985  -0.20630  -0.17170
 Alpha virt. eigenvalues --   -0.08740  -0.05108  -0.01125   0.02638   0.05723
 Alpha virt. eigenvalues --    0.08249   0.08307   0.09100   0.10048   0.10486
 Alpha virt. eigenvalues --    0.10778   0.10918   0.12280   0.12676   0.12928

 Mulliken charges:
               1
     1  C   -0.242513
     2  C   -0.044899
     3  C   -0.080763
     4  C   -0.074261
     5  C   -0.105389
     6  C   -0.053021
     7  C   -0.076505
     8  C   -0.080479
     9  C   -0.077442
    10  C   -0.077657
    11  C   -0.077613
    12  C   -0.078176
    13  C   -0.076687
    14  C   -0.078669
    15  C   -0.075339
    16  C   -0.077163
    17  C   -0.029720
    18  C   -0.256135
    19  H    0.096798
    20  H    0.083638
    21  H    0.079175
    22  H    0.079311
    23  H    0.080071
    24  H    0.079195
    25  H    0.078366
    26  H    0.078080
    27  H    0.078154
    28  H    0.078113
    29  H    0.078112
    30  H    0.078249
    31  H    0.078113
    32  H    0.078550
    33  H    0.078338
    34  H    0.078446
    35  H    0.081375
    36  H    0.097281
    37  H    0.101568
    38  H    0.101498
 Sum of Mulliken charges =  -0.00000

 Dipole moment (field-independent basis, Debye):
    X=              0.0689    Y=             -0.0324    Z=             -0.0001  Tot=              0.0761
 Quadrupole moment (field-independent basis, Debye-Ang):
   XX=           -100.5941   YY=            -96.2200   ZZ=           -117.9020
   XY=             -0.2027   XZ=             -0.0011   YZ=             -0.0032

  Exact polarizability:1356.380  52.899 176.776  -0.022  -0.012  64.559
 Approx polarizability:2135.390 168.691 299.842  -0.021  -0.016  98.353

 ******    1 imaginary frequencies (negative Signs) ******

                      1                      2                      3
                      A                      A                      A
 Frequencies --    -46.5856                16.2113                18.8698
 Red. masses --      2.2167                 3.8987                 5.0779
 Frc consts  --      0.0028                 0.0006                 0.0011
 IR Inten    --      0.0846                 0.0318                 0.4167

                      4                      5                      6
                      A                      A                      A
 Frequencies --     37.6101                51.6481                53.7443
 Red. masses --      2.7133                 4.7992                 2.7106
 Frc consts  --      0.0023                 0.0075                 0.0046
 IR Inten    --      0.0043                 0.1776                 0.0000

                      7                      8                      9
                      A                      A                      A
 Frequencies --     89.7679                99.2099               103.3456
 Red. masses --      3.2046                 4.5673                 1.8319
 Frc consts  --      0.0152                 0.0265                 0.0115
 IR Inten    --      0.3143                 0.1464                 0.0926

                     10                     11                     12
                      A                      A                      A
 Frequencies --    142.5086               156.2678               163.9873
 Red. masses --      2.4839                 5.1206                 4.1393
 Frc consts  --      0.0297                 0.0737                 0.0656
 IR Inten    --      0.0236                 1.6956                 2.4319

                     13                     14                     15
                      A                      A                      A
 Frequencies --    169.2672               220.8253               224.8290
 Red. masses --      3.0480                 1.8191                 3.8061
 Frc consts  --      0.0515                 0.0523                 0.1134
 IR Inten    --      0.1047                 0.5177                 0.1641

                     16                     17                     18
                      A                      A                      A
 Frequencies --    232.1925               262.5168               287.3550
 Red. masses --      3.4957                 4.5375                 3.2210
 Frc consts  --      0.1110                 0.1842                 0.1567
 IR Inten    --      0.0041                 4.8396                 0.0574

                     19                     20                     21
                      A                      A                      A
 Frequencies --    303.4213               318.8790               365.7566
 Red. masses --      1.8403                 3.7916                 2.0167
 Frc consts  --      0.0998                 0.2272                 0.1590
 IR Inten    --      0.0026                19.5773                 0.4363

                     22                     23                     24
                      A                      A                      A
 Frequencies --    388.9333               399.4282               416.7236
 Red. masses --      4.4634                 2.6184                 3.4893
 Frc consts  --      0.3978                 0.2461                 0.3570
 IR Inten    --      0.2887                 0.0225                 1.5788

                     25                     26                     27
                      A                      A                      A
 Frequencies --    430.3571               499.8785               511.7020
 Red. masses --      3.4042                 3.1983                 3.8015
 Frc consts  --      0.3715                 0.4709                 0.5865
 IR Inten    --      0.0543                38.8829                10.9724

                     28                     29                     30
                      A                      A                      A
 Frequencies --    559.1589               597.8954               615.2539
 Red. masses --      3.0370                 3.2708                 3.2196
 Frc consts  --      0.5595                 0.6889                 0.7180
 IR Inten    --     11.9520                 0.4215                 7.4990

                     31                     32                     33
                      A                      A                      A
 Frequencies --    630.9531               662.9120               708.5970
 Red. masses --      1.5286                 1.3725                 3.3867
 Frc consts  --      0.3585                 0.3554                 1.0019
 IR Inten    --      4.4895                 3.5801                 0.8860

                     34                     35                     36
                      A                      A                      A
 Frequencies --    827.1565               848.5667               872.2574
 Red. masses --      1.4841                 1.5547                 1.7661
 Frc consts  --      0.5983                 0.6596                 0.7917
 IR Inten    --      1.0537                 1.1743                 0.0109

                     37                     38                     39
                      A                      A                      A
 Frequencies --    889.7535               902.4627               911.5186
 Red. masses --      1.9215                 1.9936                 1.6098
 Frc consts  --      0.8962                 0.9566                 0.7881
 IR Inten    --      1.2194                 1.0699                30.1062

                     40                     41                     42
                      A                      A                      A
 Frequencies --    912.9444               917.8835               921.0965
 Red. masses --      1.6551                 1.7539                 1.9495
 Frc consts  --      0.8127                 0.8706                 0.9745
 IR Inten    --      5.2830                22.3557                 8.8848

                     43                     44                     45
                      A                      A                      A
 Frequencies --    932.6341               951.6043               966.8743
 Red. masses --      1.1561                 1.1347                 1.4932
 Frc consts  --      0.5925                 0.6054                 0.8225
 IR Inten    --      0.0002                 3.3496                 0.9283

                     46                     47                     48
                      A                      A                      A
 Frequencies --    975.9190               985.3513              1002.0210
 Red. masses --      1.1105                 2.8732                 1.0938
 Frc consts  --      0.6231                 1.6436                 0.6471
 IR Inten    --      0.8304                 3.3372                17.0749

                     49                     50                     51
                      A                      A                      A
 Frequencies --   1011.6922              1029.8129              1034.6456
 Red. masses --      1.1131                 1.0932                 1.1219
 Frc consts  --      0.6712                 0.6831                 0.7076
 IR Inten    --     14.6301                 1.3331                 7.4532

                     52                     53                     54
                      A                      A                      A
 Frequencies --   1041.2406              1049.2329              1059.9386
 Red. masses --      1.7421                 1.0888                 1.0883
 Frc consts  --      1.1128                 0.7062                 0.7204
 IR Inten    --     17.9747                16.3750               136.9251

                     55                     56                     57
                      A                      A                      A
 Frequencies --   1128.1894              1165.6812              1173.5320
 Red. masses --      1.8199                 2.4066                 2.4260
 Frc consts  --      1.3648                 1.9267                 1.9685
 IR Inten    --      8.2752                 0.1027                 0.8163

                     58                     59                     60
                      A                      A                      A
 Frequencies --   1182.9398              1193.4167              1206.0954
 Red. masses --      2.2123                 1.4884                 2.3507
 Frc consts  --      1.8240                 1.2490                 2.0147
 IR Inten    --      4.3025                29.0615                 0.2823

                     61                     62                     63
                      A                      A                      A
 Frequencies --   1223.9422              1234.2647              1252.5532
 Red. masses --      1.7011                 1.7737                 1.3827
 Frc consts  --      1.5014                 1.5920                 1.2781
 IR Inten    --      5.2798                20.6773                 9.2433

                     64                     65                     66
                      A                      A                      A
 Frequencies --   1277.4406              1305.0726              1312.7058
 Red. masses --      1.2884                 1.3946                 1.3931
 Frc consts  --      1.2387                 1.3995                 1.4144
 IR Inten    --      1.7870                 3.1282                 6.3751

                     67                     68                     69
                      A                      A                      A
 Frequencies --   1321.0332              1323.3267              1324.8327
 Red. masses --      1.7030                 1.4972                 1.7358
 Frc consts  --      1.7510                 1.5447                 1.7950
 IR Inten    --     20.5135                 6.2593                 8.6601

                     70                     71                     72
                      A                      A                      A
 Frequencies --   1327.5179              1332.0219              1335.6129
 Red. masses --      1.8388                 1.3567                 1.3052
 Frc consts  --      1.9093                 1.4183                 1.3718
 IR Inten    --      8.3737                 0.1832                 2.3037

                     73                     74                     75
                      A                      A                      A
 Frequencies --   1341.1527              1357.0239              1368.6675
 Red. masses --      1.3059                 1.4111                 1.4517
 Frc consts  --      1.3839                 1.5310                 1.6022
 IR Inten    --      0.1534                 5.4689                21.3142

                     76                     77                     78
                      A                      A                      A
 Frequencies --   1373.3991              1415.1732              1466.4586
 Red. masses --      1.4433                 1.6711                 1.2730
 Frc consts  --      1.6040                 1.9719                 1.6129
 IR Inten    --      3.4485                 7.3219                 6.0816

                     79                     80                     81
                      A                      A                      A
 Frequencies --   1467.1354              1577.0536              1603.7715
 Red. masses --      1.3116                 3.0086                 4.6643
 Frc consts  --      1.6633                 4.4087                 7.0684
 IR Inten    --      0.0263                38.9939                 0.0959

                     82                     83                     84
                      A                      A                      A
 Frequencies --   1629.0410              1645.5784              1671.6875
 Red. masses --      3.9473                 4.4434                 4.3418
 Frc consts  --      6.1718                 7.0893                 7.1487
 IR Inten    --     28.8279                 0.7372                 0.3732

                     85                     86                     87
                      A                      A                      A
 Frequencies --   1676.0932              1688.5496              1699.5505
 Red. masses --      4.4690                 4.4747                 4.3760
 Frc consts  --      7.3970                 7.5169                 7.4472
 IR Inten    --      2.6207                 0.0898                16.6918

                     88                     89                     90
                      A                      A                      A
 Frequencies --   1701.4567              3137.7013              3138.0849
 Red. masses --      3.9070                 1.0884                 1.0886
 Frc consts  --      6.6641                 6.3134                 6.3162
 IR Inten    --      0.1101                 1.2783                 0.0385

                     91                     92                     93
                      A                      A                      A
 Frequencies --   3139.1414              3139.8260              3140.9412
 Red. masses --      1.0888                 1.0895                 1.0887
 Frc consts  --      6.3216                 6.3286                 6.3284
 IR Inten    --      4.2230                 1.5618                 2.5537

                     94                     95                     96
                      A                      A                      A
 Frequencies --   3141.6036              3142.4334              3143.1333
 Red. masses --      1.0893                 1.0889                 1.0880
 Frc consts  --      6.3345                 6.3354                 6.3331
 IR Inten    --     22.0220                 3.1458                 4.5056

                     97                     98                     99
                      A                      A                      A
 Frequencies --   3146.3564              3147.8645              3149.7559
 Red. masses --      1.0874                 1.0837                 1.0863
 Frc consts  --      6.3425                 6.3268                 6.3499
 IR Inten    --      2.4928                73.5846                 6.5945

                    100                    101                    102
                      A                      A                      A
 Frequencies --   3152.6661              3154.6903              3156.8674
 Red. masses --      1.0853                 1.0850                 1.0861
 Frc consts  --      6.3553                 6.3617                 6.3775
 IR Inten    --      2.2499               151.7328                96.2175

                    103                    104                    105
                      A                      A                      A
 Frequencies --   3158.7371              3159.8060              3166.7287
 Red. masses --      1.0669                 1.0723                 1.0802
 Frc consts  --      6.2718                 6.3082                 6.3824
 IR Inten    --     13.9029                 0.1725                50.9973

                    106                    107                    108
                      A                      A                      A
 Frequencies --   3169.8549              3247.7176              3247.9110
 Red. masses --      1.0883                 1.1158                 1.1158
 Frc consts  --      6.4427                 6.9341                 6.9350
 IR Inten    --     32.7267                15.4573                15.0936

 - Thermochemistry -
 -------------------
 Temperature   298.150 Kelvin.  Pressure   1.00000 Atm.
 Atom     1 has atomic number  6 and mass  12.00000

 Molecular mass:   236.15650 amu.
 Principal axes and moments of inertia in atomic units:
                           1         2         3
     Eigenvalues --   415.56841********************
           X            1.00000   0.00008  -0.00000
           Y           -0.00008   1.00000  -0.00003
           Z            0.00000   0.00003   1.00000
 This molecule is an asymmetric top.
 Rotational symmetry number  1.
 Rotational temperatures (Kelvin)      0.20842     0.00259     0.00255
 Rotational constants (GHZ):           4.34283     0.05388     0.05322
    1 imaginary frequencies ignored.
 Zero-point vibrational energy     838991.4 (Joules/Mol)
                                  200.52375 (Kcal/Mol)
 Warning -- explicit consideration of  29 degrees of freedom as
           vibrations may cause significant error
 Vibrational temperatures:     23.32    27.15    54.11    74.31    77.33
          (Kelvin)            129.16   142.74   148.69   205.04   224.83
                              235.94   243.54   317.72   323.48   334.07
                              377.70   413.44   436.56   458.80   526.24
                              559.59   574.69   599.57   619.19   719.21
                              736.23   804.51   860.24   885.21   907.80
                              953.78  1019.51  1190.09  1220.90  1254.98
                             1280.16  1298.44  1311.47  1313.52  1320.63
                             1325.25  1341.85  1369.15  1391.12  1404.13
                             1417.70  1441.68  1455.60  1481.67  1488.62
                             1498.11  1509.61  1525.02  1623.21  1677.16
                             1688.45  1701.99  1717.06  1735.30  1760.98
                             1775.83  1802.14  1837.95  1877.71  1888.69
                             1900.67  1903.97  1906.14  1910.00  1916.48
                             1921.65  1929.62  1952.45  1969.21  1976.01
                             2036.12  2109.91  2110.88  2269.03  2307.47
                             2343.83  2367.62  2405.19  2411.52  2429.45
                             2445.27  2448.02  4514.45  4515.00  4516.52
                             4517.51  4519.11  4520.07  4521.26  4522.27
                             4526.91  4529.07  4531.80  4535.98  4538.90
                             4542.03  4544.72  4546.26  4556.22  4560.71
                             4672.74  4673.02

 Zero-point correction=                           0.319555 (Hartree/Particle)
 Thermal correction to Energy=                    0.338879
 Thermal correction to Enthalpy=                  0.339823
 Thermal correction to Gibbs Free Energy=         0.268732
 Sum of electronic and zero-point Energies=           -697.544375
 Sum of electronic and thermal Energies=              -697.525050
 Sum of electronic and thermal Enthalpies=            -697.524106
 Sum of electronic and thermal Free Energies=         -697.595198

                     E (Thermal)             CV                S
                      KCal/Mol        Cal/Mol-Kelvin    Cal/Mol-Kelvin
 Total                  212.650             70.539            149.625
 Electronic               0.000              0.000              0.000
 Translational            0.889              2.981             42.279
 Rotational               0.889              2.981             34.511
 Vibrational            210.873             64.577             72.835
 Vibration     1          0.593              1.986              7.051
 Vibration     2          0.593              1.986              6.750
 Vibration     3          0.594              1.982              5.381
 Vibration     4          0.596              1.977              4.753
 Vibration     5          0.596              1.976              4.675
 Vibration     6          0.602              1.956              3.665
 Vibration     7          0.604              1.950              3.470
 Vibration     8          0.605              1.947              3.390
 Vibration     9          0.616              1.911              2.770
 Vibration    10          0.620              1.896              2.594
 Vibration    11          0.623              1.887              2.503
 Vibration    12          0.625              1.880              2.444
 Vibration    13          0.648              1.809              1.952
 Vibration    14          0.649              1.803              1.920
 Vibration    15          0.653              1.792              1.862
 Vibration    16          0.670              1.741              1.645
 Vibration    17          0.685              1.697              1.489
 Vibration    18          0.695              1.667              1.398
 Vibration    19          0.705              1.637              1.316
 Vibration    20          0.739              1.543              1.098
 Vibration    21          0.757              1.494              1.004
 Vibration    22          0.765              1.471              0.965
 Vibration    23          0.780              1.434              0.903
 Vibration    24          0.792              1.404              0.857
 Vibration    25          0.855              1.250              0.658
 Vibration    26          0.867              1.224              0.630
 Vibration    27          0.915              1.120              0.526
 Vibration    28          0.956              1.036              0.453
 Vibration    29          0.975              1.000              0.424

                           ! Non-Optimized Parameters !
 Normal termination of Gaussian 16 at Fri Oct 27 18:45:18 2023.
