 Gaussian 16, Revision B.01,
 Gaussian 16:  EM64L-G16RevB.01 20-Dec-2017

 ---------------------------
 # B3LYP/6-31G(d,p) OPT FREQ
 ---------------------------

 -----
 9poly
 -----
 Symbolic Z-matrix:
 Charge =  0 Multiplicity = 1

 SCF Done:  E(RB3LYP) =  -697.856283217     A.U. after   13 cycles
 SCF Done:  E(RB3LYP) =  -697.873517374     A.U. after   12 cycles
 SCF Done:  E(RB3LYP) =  -697.875468453     A.U. after   12 cycles
 SCF Done:  E(RB3LYP) =  -697.875559477     A.U. after    9 cycles
 SCF Done:  E(RB3LYP) =  -697.875566428     A.U. after    8 cycles
 SCF Done:  E(RB3LYP) =  -697.875566654     A.U. after    6 cycles
 Optimization completed.
    -- Stationary point found.
 Normal termination of Gaussian 16 at Thu Nov  9 23:39:50 2023.

 ----------------------------------------------------------------------
 #N Geom=AllCheck Guess=TCheck SCRF=Check GenChk RB3LYP/6-31G(d,p) Freq
 ----------------------------------------------------------------------

 Structure from the checkpoint file:  "checkpoint.chk"
 -----
 9poly
 -----
 Charge =  0 Multiplicity = 1

                         Standard orientation:
 ---------------------------------------------------------------------
 Center     Atomic      Atomic             Coordinates (Angstroms)
 Number     Number       Type             X           Y           Z
 ---------------------------------------------------------------------
      1          6           0       10.488988   -0.239332   -0.000006
      2          6           0        9.298162    0.384850   -0.000004
      3          6           0        8.018922   -0.287989   -0.000003
      4          6           0        6.820267    0.350971   -0.000001
      5          6           0        5.546118   -0.308585   -0.000000
      6          6           0        4.345827    0.336726    0.000002
      7          6           0        3.073472   -0.318323    0.000002
      8          6           0        1.872354    0.329276    0.000004
      9          6           0        0.600676   -0.324112    0.000004
     10          6           0       -0.600675    0.324127    0.000005
     11          6           0       -1.872354   -0.329262    0.000005
     12          6           0       -3.073472    0.318335    0.000005
     13          6           0       -4.345826   -0.336717    0.000004
     14          6           0       -5.546119    0.308590    0.000002
     15          6           0       -6.820266   -0.350972    0.000000
     16          6           0       -8.018925    0.287982   -0.000003
     17          6           0       -9.298160   -0.384867   -0.000005
     18          6           0      -10.488991    0.239306   -0.000009
     19          1           0       11.422284    0.313328   -0.000006
     20          1           0       10.561277   -1.323782   -0.000007
     21          1           0        9.271792    1.474598   -0.000003
     22          1           0        8.034909   -1.378084   -0.000004
     23          1           0        6.811156    1.441522   -0.000000
     24          1           0        5.552461   -1.398845   -0.000002
     25          1           0        4.341391    1.427180    0.000003
     26          1           0        3.076872   -1.408671    0.000001
     27          1           0        1.869687    1.419694    0.000005
     28          1           0        0.603056   -1.414500    0.000004
     29          1           0       -0.603055    1.414515    0.000006
     30          1           0       -1.869684   -1.419679    0.000006
     31          1           0       -3.076874    1.408683    0.000005
     32          1           0       -4.341386   -1.427171    0.000005
     33          1           0       -5.552466    1.398849    0.000001
     34          1           0       -6.811148   -1.441523    0.000002
     35          1           0       -8.034917    1.378077   -0.000004
     36          1           0       -9.271781   -1.474614   -0.000003
     37          1           0      -10.561289    1.323755   -0.000010
     38          1           0      -11.422282   -0.313361   -0.000010
 ---------------------------------------------------------------------

 SCF Done:  E(RB3LYP) =  -697.875566654     A.U. after    1 cycles

 The electronic state is 1-A.
 Alpha  occ. eigenvalues --  -10.19494 -10.19484 -10.19473 -10.19460 -10.19454
 Alpha  occ. eigenvalues --  -10.19421 -10.19413 -10.19407 -10.19398 -10.19390
 Alpha  occ. eigenvalues --  -10.19376 -10.19376 -10.19349 -10.19349 -10.19274
 Alpha  occ. eigenvalues --  -10.19274 -10.18404 -10.18404  -0.83201  -0.82587
 Alpha  occ. eigenvalues --   -0.81622  -0.80319  -0.78687  -0.76740  -0.74503
 Alpha  occ. eigenvalues --   -0.72026  -0.69486  -0.64943  -0.61898  -0.58715
 Alpha  occ. eigenvalues --   -0.56781  -0.56294  -0.55836  -0.55526  -0.54669
 Alpha  occ. eigenvalues --   -0.54364  -0.48824  -0.48469  -0.47456  -0.46334
 Alpha  occ. eigenvalues --   -0.45365  -0.44228  -0.42741  -0.41880  -0.40200
 Alpha  occ. eigenvalues --   -0.39974  -0.38299  -0.38277  -0.37127  -0.36980
 Alpha  occ. eigenvalues --   -0.36145  -0.35594  -0.35572  -0.35209  -0.34787
 Alpha  occ. eigenvalues --   -0.34729  -0.34569  -0.33535  -0.31827  -0.29671
 Alpha  occ. eigenvalues --   -0.27076  -0.24066  -0.20700  -0.17216
 Alpha virt. eigenvalues --   -0.08549  -0.04720  -0.00785   0.02881   0.06022
 Alpha virt. eigenvalues --    0.08419   0.08437   0.09297   0.09948   0.10609
 Alpha virt. eigenvalues --    0.10673   0.10869   0.12243   0.12646   0.12718

 Mulliken charges:
               1
     1  C   -0.256192
     2  C   -0.029700
     3  C   -0.077211
     4  C   -0.075336
     5  C   -0.078706
     6  C   -0.076710
     7  C   -0.078204
     8  C   -0.077563
     9  C   -0.077874
    10  C   -0.077874
    11  C   -0.077563
    12  C   -0.078204
    13  C   -0.076710
    14  C   -0.078706
    15  C   -0.075336
    16  C   -0.077211
    17  C   -0.029700
    18  C   -0.256192
    19  H    0.101503
    20  H    0.097225
    21  H    0.081321
    22  H    0.078382
    23  H    0.078280
    24  H    0.078477
    25  H    0.078048
    26  H    0.078172
    27  H    0.078026
    28  H    0.078063
    29  H    0.078063
    30  H    0.078026
    31  H    0.078172
    32  H    0.078048
    33  H    0.078477
    34  H    0.078280
    35  H    0.078382
    36  H    0.081321
    37  H    0.097225
    38  H    0.101503
 Sum of Mulliken charges =  -0.00000

 Dipole moment (field-independent basis, Debye):
    X=              0.0000    Y=              0.0000    Z=              0.0000  Tot=              0.0000
 Quadrupole moment (field-independent basis, Debye-Ang):
   XX=           -100.6234   YY=            -96.4769   ZZ=           -117.9555
   XY=              0.3432   XZ=             -0.0000   YZ=              0.0000

  Exact polarizability:1418.675 -72.389 164.230   0.000  -0.000  64.759
 Approx polarizability:2218.710-206.937 267.731   0.000  -0.000  98.721

                      1                      2                      3
                      A                      A                      A
 Frequencies --     13.3013                18.0674                36.3880
 Red. masses --      5.3449                 5.0865                 5.2050
 Frc consts  --      0.0006                 0.0010                 0.0041
 IR Inten    --      0.0167                 0.5018                 0.0000

                      4                      5                      6
                      A                      A                      A
 Frequencies --     49.5145                67.9884                82.2470
 Red. masses --      4.7446                 3.8007                 1.7372
 Frc consts  --      0.0069                 0.0104                 0.0069
 IR Inten    --      0.0000                 0.0224                 0.2154

                      7                      8                      9
                      A                      A                      A
 Frequencies --     95.0701               111.1514               152.3608
 Red. masses --      4.4002                 4.3969                 4.1098
 Frc consts  --      0.0234                 0.0320                 0.0562
 IR Inten    --      2.1182                 0.0000                 0.0000

                     10                     11                     12
                      A                      A                      A
 Frequencies --    159.0350               160.5383               160.8087
 Red. masses --      1.6838                 4.0308                 5.7409
 Frc consts  --      0.0251                 0.0612                 0.0875
 IR Inten    --      0.0000                 0.1396                 0.0000

                     13                     14                     15
                      A                      A                      A
 Frequencies --    213.1738               219.9581               231.3958
 Red. masses --      3.4637                 3.7579                 1.8792
 Frc consts  --      0.0927                 0.1071                 0.0593
 IR Inten    --      0.0000                 4.8855                 0.1937

                     16                     17                     18
                      A                      A                      A
 Frequencies --    263.6867               293.1019               294.1894
 Red. masses --      2.8292                 2.7203                 3.4837
 Frc consts  --      0.1159                 0.1377                 0.1776
 IR Inten    --      0.2014                 0.0000                 0.0000

                     19                     20                     21
                      A                      A                      A
 Frequencies --    310.1065               310.2426               362.1253
 Red. masses --      2.0101                 5.3681                 1.9476
 Frc consts  --      0.1139                 0.3044                 0.1505
 IR Inten    --      0.0000                16.2644                 0.2935

                     22                     23                     24
                      A                      A                      A
 Frequencies --    372.6216               407.0815               433.8878
 Red. masses --      3.2737                 2.3771                 3.7658
 Frc consts  --      0.2678                 0.2321                 0.4177
 IR Inten    --      4.3506                 0.0000                 0.0000

                     25                     26                     27
                      A                      A                      A
 Frequencies --    437.0947               460.2553               509.0634
 Red. masses --      3.4611                 3.6548                 3.0585
 Frc consts  --      0.3896                 0.4562                 0.4670
 IR Inten    --      0.0730                 0.0000                12.2225

                     28                     29                     30
                      A                      A                      A
 Frequencies --    555.6001               575.4526               619.6553
 Red. masses --      3.9287                 2.9993                 3.3862
 Frc consts  --      0.7145                 0.5852                 0.7661
 IR Inten    --      4.3936                 0.0000                 0.0000

                     31                     32                     33
                      A                      A                      A
 Frequencies --    622.2841               662.9005               663.1898
 Red. masses --      3.0923                 1.3690                 1.3764
 Frc consts  --      0.7055                 0.3544                 0.3567
 IR Inten    --      2.3181                 0.0000                 7.0845

                     34                     35                     36
                      A                      A                      A
 Frequencies --    837.6949               856.2613               876.1386
 Red. masses --      1.3834                 1.5783                 1.7760
 Frc consts  --      0.5720                 0.6818                 0.8032
 IR Inten    --      0.0000                 0.7580                 0.0000

                     37                     38                     39
                      A                      A                      A
 Frequencies --    892.3877               904.6057               912.7777
 Red. masses --      1.9154                 1.9400                 1.7763
 Frc consts  --      0.8987                 0.9353                 0.8720
 IR Inten    --      3.2289                 0.0000                23.7053

                     40                     41                     42
                      A                      A                      A
 Frequencies --    917.2113               919.9832               921.6761
 Red. masses --      1.5957                 1.6462                 2.0089
 Frc consts  --      0.7909                 0.8209                 1.0055
 IR Inten    --      0.0000                44.2442                 0.0000

                     43                     44                     45
                      A                      A                      A
 Frequencies --    931.6492               946.6131               964.9867
 Red. masses --      1.1586                 1.1445                 1.1275
 Frc consts  --      0.5925                 0.6042                 0.6186
 IR Inten    --      1.4599                 0.0000                 1.8285

                     46                     47                     48
                      A                      A                      A
 Frequencies --    966.8335               966.9520               985.9260
 Red. masses --      1.4945                 1.4919                 1.1099
 Frc consts  --      0.8231                 0.8219                 0.6356
 IR Inten    --      0.0000                 1.8503                 0.0000

                     49                     50                     51
                      A                      A                      A
 Frequencies --   1007.9224              1028.6533              1045.6964
 Red. masses --      1.0978                 1.0924                 1.0909
 Frc consts  --      0.6571                 0.6810                 0.7028
 IR Inten    --      1.5573                 0.0000                 1.1985

                     52                     53                     54
                      A                      A                      A
 Frequencies --   1057.1326              1061.3887              1161.5615
 Red. masses --      1.0908                 1.0878                 3.0439
 Frc consts  --      0.7182                 0.7220                 2.4197
 IR Inten    --      0.0000               198.7011                 0.0000

                     55                     56                     57
                      A                      A                      A
 Frequencies --   1165.6731              1175.6948              1175.9566
 Red. masses --      2.1388                 1.6957                 3.9961
 Frc consts  --      1.7123                 1.3810                 3.2559
 IR Inten    --      1.9145                 0.0000                 0.4426

                     58                     59                     60
                      A                      A                      A
 Frequencies --   1193.0526              1193.7168              1203.5387
 Red. masses --      1.3477                 1.6995                 3.4193
 Frc consts  --      1.1302                 1.4268                 2.9181
 IR Inten    --     54.8248                 0.0000                 0.0000

                     61                     62                     63
                      A                      A                      A
 Frequencies --   1226.3662              1227.8259              1248.5571
 Red. masses --      1.4553                 2.4443                 1.3281
 Frc consts  --      1.2896                 2.1711                 1.2198
 IR Inten    --     51.2943                 7.4491                 0.0000

                     64                     65                     66
                      A                      A                      A
 Frequencies --   1269.4711              1291.2318              1313.1200
 Red. masses --      1.2728                 1.2534                 1.3435
 Frc consts  --      1.2085                 1.2312                 1.3649
 IR Inten    --     16.7411                 0.0000                18.1641

                     67                     68                     69
                      A                      A                      A
 Frequencies --   1320.6707              1322.7346              1323.0480
 Red. masses --      1.6018                 1.9378                 1.4585
 Frc consts  --      1.6461                 1.9975                 1.5042
 IR Inten    --      0.0000                48.5559                 0.0000

                     70                     71                     72
                      A                      A                      A
 Frequencies --   1325.8762              1327.8434              1328.7010
 Red. masses --      1.4627                 2.5721                 1.3549
 Frc consts  --      1.5150                 2.6720                 1.4093
 IR Inten    --     26.6906                 0.0000                 1.0524

                     73                     74                     75
                      A                      A                      A
 Frequencies --   1332.4873              1335.7334              1338.6635
 Red. masses --      1.3310                 1.3276                 1.2903
 Frc consts  --      1.3924                 1.3956                 1.3624
 IR Inten    --      0.0000                 0.0000                 1.7478

                     76                     77                     78
                      A                      A                      A
 Frequencies --   1362.6071              1407.7502              1464.8274
 Red. masses --      1.4035                 1.6336                 1.3037
 Frc consts  --      1.5354                 1.9074                 1.6482
 IR Inten    --      0.0000                 1.2432                 0.0000

                     79                     80                     81
                      A                      A                      A
 Frequencies --   1468.7790              1594.9088              1598.9412
 Red. masses --      1.3249                 3.1656                 4.6775
 Frc consts  --      1.6840                 4.7443                 7.0457
 IR Inten    --      2.5917                 0.0000                 0.0000

                     82                     83                     84
                      A                      A                      A
 Frequencies --   1632.6114              1653.6720              1661.3332
 Red. masses --      4.4539                 4.0354                 4.4376
 Frc consts  --      6.9944                 6.5018                 7.2163
 IR Inten    --      4.3100                 2.6195                 0.0000

                     85                     86                     87
                      A                      A                      A
 Frequencies --   1683.0410              1685.4963              1699.3167
 Red. masses --      4.6151                 4.6339                 4.4868
 Frc consts  --      7.7023                 7.7562                 7.6336
 IR Inten    --      9.5996                 0.0000                 0.0000

                     88                     89                     90
                      A                      A                      A
 Frequencies --   1701.0285              3137.5557              3137.8347
 Red. masses --      4.5510                 1.0884                 1.0882
 Frc consts  --      7.7586                 6.3130                 6.3128
 IR Inten    --     23.2663                 0.0000                 1.1918

                     91                     92                     93
                      A                      A                      A
 Frequencies --   3137.9239              3138.7892              3139.8890
 Red. masses --      1.0886                 1.0887                 1.0887
 Frc consts  --      6.3154                 6.3197                 6.3240
 IR Inten    --      3.0093                 0.0000                 6.0036

                     94                     95                     96
                      A                      A                      A
 Frequencies --   3140.5600              3141.4060              3141.4587
 Red. masses --      1.0895                 1.0900                 1.0882
 Frc consts  --      6.3312                 6.3378                 6.3272
 IR Inten    --      0.0000                 0.0001                53.7042

                     97                     98                     99
                      A                      A                      A
 Frequencies --   3142.4049              3143.9161              3146.3902
 Red. masses --      1.0889                 1.0881                 1.0874
 Frc consts  --      6.3354                 6.3367                 6.3428
 IR Inten    --      0.0000                 6.7638                 0.0000

                    100                    101                    102
                      A                      A                      A
 Frequencies --   3148.8484              3151.0867              3152.9625
 Red. masses --      1.0865                 1.0856                 1.0849
 Frc consts  --      6.3474                 6.3508                 6.3544
 IR Inten    --      1.7275                 0.0000                 5.9139

                    103                    104                    105
                      A                      A                      A
 Frequencies --   3154.3760              3155.0262              3158.7055
 Red. masses --      1.0847                 1.0850                 1.0668
 Frc consts  --      6.3592                 6.3631                 6.2712
 IR Inten    --      0.0000               316.9518                29.0370

                    106                    107                    108
                      A                      A                      A
 Frequencies --   3158.7255              3247.9043              3247.9045
 Red. masses --      1.0670                 1.1158                 1.1158
 Frc consts  --      6.2723                 6.9349                 6.9349
 IR Inten    --      0.0009                29.5276                 0.7035

 - Thermochemistry -
 -------------------
 Temperature   298.150 Kelvin.  Pressure   1.00000 Atm.
 Atom     1 has atomic number  6 and mass  12.00000

 Molecular mass:   236.15650 amu.
 Principal axes and moments of inertia in atomic units:
                           1         2         3
     Eigenvalues --   209.66002********************
           X            1.00000  -0.00042   0.00000
           Y            0.00042   1.00000   0.00000
           Z           -0.00000  -0.00000   1.00000
 This molecule is an asymmetric top.
 Rotational symmetry number  1.
 Rotational temperatures (Kelvin)      0.41312     0.00245     0.00244
 Rotational constants (GHZ):           8.60794     0.05106     0.05076
 Zero-point vibrational energy     840170.5 (Joules/Mol)
                                  200.80556 (Kcal/Mol)
 Warning -- explicit consideration of  30 degrees of freedom as
           vibrations may cause significant error
 Vibrational temperatures:     19.14    25.99    52.35    71.24    97.82
          (Kelvin)            118.34   136.78   159.92   219.21   228.82
                              230.98   231.37   306.71   316.47   332.93
                              379.39   421.71   423.27   446.17   446.37
                              521.02   536.12   585.70   624.27   628.88
                              662.20   732.43   799.38   827.95   891.55
                              895.33   953.77   954.18  1205.26  1231.97
                             1260.57  1283.95  1301.53  1313.28  1319.66
                             1323.65  1326.09  1340.44  1361.97  1388.40
                             1391.06  1391.23  1418.53  1450.18  1480.00
                             1504.52  1520.98  1527.10  1671.23  1677.14
                             1691.56  1691.94  1716.54  1717.49  1731.62
                             1764.47  1766.57  1796.40  1826.49  1857.79
                             1889.29  1900.15  1903.12  1903.57  1907.64
                             1910.47  1911.70  1917.15  1921.82  1926.04
                             1960.49  2025.44  2107.56  2113.25  2294.72
                             2300.52  2348.96  2379.27  2390.29  2421.52
                             2425.05  2444.94  2447.40  4514.24  4514.64
                             4514.77  4516.02  4517.60  4518.57  4519.78
                             4519.86  4521.22  4523.39  4526.95  4530.49
                             4533.71  4536.41  4538.44  4539.38  4544.67
                             4544.70  4673.01  4673.01

 Zero-point correction=                           0.320004 (Hartree/Particle)
 Thermal correction to Energy=                    0.339809
 Thermal correction to Enthalpy=                  0.340753
 Thermal correction to Gibbs Free Energy=         0.269013
 Sum of electronic and zero-point Energies=           -697.555563
 Sum of electronic and thermal Energies=              -697.535758
 Sum of electronic and thermal Enthalpies=            -697.534814
 Sum of electronic and thermal Free Energies=         -697.606553

                     E (Thermal)             CV                S
                      KCal/Mol        Cal/Mol-Kelvin    Cal/Mol-Kelvin
 Total                  213.233             72.351            150.988
 Electronic               0.000              0.000              0.000
 Translational            0.889              2.981             42.279
 Rotational               0.889              2.981             33.932
 Vibrational            211.456             66.390             74.777
 Vibration     1          0.593              1.987              7.444
 Vibration     2          0.593              1.986              6.836
 Vibration     3          0.594              1.982              5.447
 Vibration     4          0.595              1.978              4.837
 Vibration     5          0.598              1.969              4.211
 Vibration     6          0.600              1.961              3.837
 Vibration     7          0.603              1.953              3.553
 Vibration     8          0.607              1.940              3.249
 Vibration     9          0.619              1.900              2.643
 Vibration    10          0.621              1.892              2.561
 Vibration    11          0.622              1.891              2.543
 Vibration    12          0.622              1.890              2.540
 Vibration    13          0.644              1.821              2.016
 Vibration    14          0.647              1.811              1.959
 Vibration    15          0.653              1.793              1.868
 Vibration    16          0.670              1.739              1.637
 Vibration    17          0.688              1.687              1.456
 Vibration    18          0.689              1.685              1.450
 Vibration    19          0.699              1.654              1.362
 Vibration    20          0.699              1.654              1.361
 Vibration    21          0.736              1.550              1.113
 Vibration    22          0.744              1.528              1.069
 Vibration    23          0.772              1.455              0.937
 Vibration    24          0.795              1.396              0.846
 Vibration    25          0.797              1.389              0.836
 Vibration    26          0.818              1.338              0.765
 Vibration    27          0.864              1.230              0.636
 Vibration    28          0.911              1.127              0.533
 Vibration    29          0.932              1.084              0.494
 Vibration    30          0.980              0.990              0.417

 Optimization completed.
    -- Stationary point found.
 Normal termination of Gaussian 16 at Thu Nov  9 23:56:52 2023.
