 Gaussian 16, Revision B.01,
 Gaussian 16:  EM64L-G16RevB.01 20-Dec-2017

 ------------------------------
 # B3LYP/6-31G(d,p) OPT FREQ TD
 ------------------------------

 -------
 Benzeno
 -------
 Symbolic Z-matrix:
 Charge =  0 Multiplicity = 1

 SCF Done:  E(RB3LYP) =  -232.258102812     A.U. after   10 cycles
 Total Energy, E(TD-HF/TD-DFT) =  -232.055681778
 SCF Done:  E(RB3LYP) =  -232.252641216     A.U. after   10 cycles
 Total Energy, E(TD-HF/TD-DFT) =  -232.059821571
 SCF Done:  E(RB3LYP) =  -232.253192755     A.U. after    6 cycles
 Total Energy, E(TD-HF/TD-DFT) =  -232.059838079
 Optimization completed.
    -- Stationary point found.
 Normal termination of Gaussian 16 at Fri Nov 10 15:52:15 2023.

 ----------------------------------------------------------------------
 #N Geom=AllCheck Guess=TCheck SCRF=Check GenChk RB3LYP TD(FC,Read)/6-3
 1G(d,p) Freq
 ----------------------------------------------------------------------

 Structure from the checkpoint file:  "checkpoint.chk"
 -------
 Benzeno
 -------
 Charge =  0 Multiplicity = 1

                         Standard orientation:
 ---------------------------------------------------------------------
 Center     Atomic      Atomic             Coordinates (Angstroms)
 Number     Number       Type             X           Y           Z
 ---------------------------------------------------------------------
      1          6           0        0.353433    1.382859   -0.000007
      2          6           0        1.374313    0.385349   -0.000001
      3          6           0        1.020878   -0.997511    0.000007
      4          6           0       -0.353433   -1.382859   -0.000007
      5          6           0       -1.374313   -0.385349   -0.000001
      6          6           0       -1.020878    0.997511    0.000008
      7          1           0        0.621896    2.433288   -0.000025
      8          1           0       -1.796343    1.755221    0.000030
      9          1           0       -2.418242   -0.678066   -0.000004
     10          1           0       -0.621896   -2.433288   -0.000024
     11          1           0        1.796342   -1.755222    0.000028
     12          1           0        2.418243    0.678065   -0.000002
 ---------------------------------------------------------------------

 SCF Done:  E(RB3LYP) =  -232.253192755     A.U. after    1 cycles

 Excitation energies and oscillator strengths:

 Excited State   1:      Singlet-A      5.2614 eV  235.65 nm  f=0.0000  <S**2>=0.000
      20 -> 22         0.49684
      21 -> 23        -0.49684
 This state for optimization and/or second-order correction.
 Total Energy, E(TD-HF/TD-DFT) =  -232.059838078
 Copying the excited state density for this state as the 1-particle RhoCI density.

 Excited State   2:      Singlet-A      6.0397 eV  205.28 nm  f=0.0000  <S**2>=0.000
      20 -> 23        -0.49526
      21 -> 22        -0.49529

 Excited State   3:      Singlet-A      7.0646 eV  175.50 nm  f=0.5338  <S**2>=0.000
      20 -> 22        -0.27264
      20 -> 23         0.41712
      21 -> 22        -0.41710
      21 -> 23        -0.27264

 The electronic state is 1-A.
 Alpha  occ. eigenvalues --  -10.19550 -10.19528 -10.19528 -10.19484 -10.19484
 Alpha  occ. eigenvalues --  -10.19462  -0.83208  -0.73305  -0.73305  -0.59498
 Alpha  occ. eigenvalues --   -0.59498  -0.51134  -0.46593  -0.43008  -0.41481
 Alpha  occ. eigenvalues --   -0.41481  -0.34998  -0.34108  -0.34108  -0.24296
 Alpha  occ. eigenvalues --   -0.24296
 Alpha virt. eigenvalues --   -0.00390  -0.00390   0.09384   0.14629   0.14629
 Alpha virt. eigenvalues --    0.14636   0.17555   0.17555   0.18495   0.28912
 Alpha virt. eigenvalues --    0.28912   0.30118   0.30119   0.47573   0.51373

 Mulliken charges:
               1
     1  C   -0.088058
     2  C   -0.088060
     3  C   -0.088078
     4  C   -0.088057
     5  C   -0.088059
     6  C   -0.088079
     7  H    0.088064
     8  H    0.088066
     9  H    0.088065
    10  H    0.088064
    11  H    0.088066
    12  H    0.088065
 Sum of Mulliken charges =  -0.00000

 Dipole moment (field-independent basis, Debye):
    X=             -0.0000    Y=             -0.0000    Z=              0.0000  Tot=              0.0000
 Quadrupole moment (field-independent basis, Debye-Ang):
   XX=            -31.2645   YY=            -31.2646   ZZ=            -38.9145
   XY=              0.0000   XZ=              0.0000   YZ=             -0.0000

  Exact polarizability:  70.183   0.000  70.183   0.000  -0.000  22.082
 Approx polarizability: 126.227   0.000 126.227  -0.000   0.000  32.161

                      1                      2                      3
                      A                      A                      A
 Frequencies --    260.5232               260.7504               339.3487
 Red. masses --      2.4752                 2.4760                 1.7763
 Frc consts  --      0.0990                 0.0992                 0.1205
 IR Inten    --      0.0000                 0.0000                 0.0000

                      4                      5                      6
                      A                      A                      A
 Frequencies --    531.6267               531.6372               547.3355
 Red. masses --      6.1961                 6.1961                 1.0848
 Frc consts  --      1.0318                 1.0318                 0.1915
 IR Inten    --      0.0000                 0.0000               104.3374

                      7                      8                      9
                      A                      A                      A
 Frequencies --    567.7211               567.8190               717.4575
 Red. masses --      1.2428                 1.2428                 1.4891
 Frc consts  --      0.2360                 0.2361                 0.4516
 IR Inten    --      0.0000                 0.0000                 0.0000

                     10                     11                     12
                      A                      A                      A
 Frequencies --    717.6219               768.2506               963.0741
 Red. masses --      1.4888                 1.9508                 6.0532
 Frc consts  --      0.4517                 0.6784                 3.3079
 IR Inten    --      0.0000                 0.0000                 0.0000

                     13                     14                     15
                      A                      A                      A
 Frequencies --    971.0524               971.2100               999.0078
 Red. masses --      2.1282                 2.1278                 6.5043
 Frc consts  --      1.1824                 1.1825                 3.8246
 IR Inten    --      1.6004                 1.6004                 0.0000

                     16                     17                     18
                      A                      A                      A
 Frequencies --   1175.8538              1181.0194              1181.0654
 Red. masses --      1.0152                 1.1682                 1.1681
 Frc consts  --      0.8270                 0.9600                 0.9601
 IR Inten    --      0.0000                 0.0000                 0.0000

                     19                     20                     21
                      A                      A                      A
 Frequencies --   1362.6773              1455.3441              1455.4588
 Red. masses --      1.2428                 1.6360                 1.6362
 Frc consts  --      1.3596                 2.0416                 2.0422
 IR Inten    --      0.0000                 5.0015                 5.0022

                     22                     23                     24
                      A                      A                      A
 Frequencies --   1491.2768              1583.0372              1583.1033
 Red. masses --     11.0410                 4.7184                 4.7189
 Frc consts  --     14.4669                 6.9667                 6.9680
 IR Inten    --      0.0000                 0.0000                 0.0000

                     25                     26                     27
                      A                      A                      A
 Frequencies --   3199.3692              3203.8173              3203.8659
 Red. masses --      1.0848                 1.0849                 1.0849
 Frc consts  --      6.5423                 6.5609                 6.5611
 IR Inten    --      0.0001                 0.0000                 0.0000

                     28                     29                     30
                      A                      A                      A
 Frequencies --   3219.4169              3219.4698              3231.7303
 Red. masses --      1.0914                 1.0914                 1.0985
 Frc consts  --      6.6647                 6.6649                 6.7593
 IR Inten    --     34.9121                34.9040                 0.0000

 - Thermochemistry -
 -------------------
 Temperature   298.150 Kelvin.  Pressure   1.00000 Atm.
 Atom     1 has atomic number  6 and mass  12.00000

 Molecular mass:    78.04695 amu.
 Principal axes and moments of inertia in atomic units:
                           1         2         3
     Eigenvalues --   330.00457 330.00662 660.01119
           X            0.99999  -0.00515   0.00000
           Y            0.00515   0.99999  -0.00000
           Z           -0.00000   0.00000   1.00000
 This molecule is an asymmetric top.
 Rotational symmetry number  1.
 Rotational temperatures (Kelvin)      0.26246     0.26246     0.13123
 Rotational constants (GHZ):           5.46884     5.46880     2.73441
 Zero-point vibrational energy     247991.5 (Joules/Mol)
                                   59.27139 (Kcal/Mol)
 Warning -- explicit consideration of   8 degrees of freedom as
           vibrations may cause significant error
 Vibrational temperatures:    374.83   375.16   488.25   764.89   764.91
          (Kelvin)            787.49   816.82   816.96  1032.26  1032.50
                             1105.34  1385.65  1397.13  1397.35  1437.35
                             1691.79  1699.22  1699.29  1960.59  2093.92
                             2094.08  2145.61  2277.64  2277.73  4603.18
                             4609.58  4609.65  4632.02  4632.10  4649.74

 Zero-point correction=                           0.094455 (Hartree/Particle)
 Thermal correction to Energy=                    0.100105
 Thermal correction to Enthalpy=                  0.101049
 Thermal correction to Gibbs Free Energy=         0.066149
 Sum of electronic and zero-point Energies=           -231.965383
 Sum of electronic and thermal Energies=              -231.959733
 Sum of electronic and thermal Enthalpies=            -231.958789
 Sum of electronic and thermal Free Energies=         -231.993689

                     E (Thermal)             CV                S
                      KCal/Mol        Cal/Mol-Kelvin    Cal/Mol-Kelvin
 Total                   62.817             21.810             73.454
 Electronic               0.000              0.000              0.000
 Translational            0.889              2.981             38.979
 Rotational               0.889              2.981             25.778
 Vibrational             61.039             15.849              8.697
 Vibration     1          0.669              1.745              1.658
 Vibration     2          0.669              1.745              1.657
 Vibration     3          0.719              1.597              1.215
 Vibration     4          0.887              1.180              0.584
 Vibration     5          0.887              1.180              0.584
 Vibration     6          0.903              1.146              0.550
 Vibration     7          0.924              1.101              0.509
 Vibration     8          0.924              1.101              0.508

 Optimization completed.
    -- Stationary point found.
 Normal termination of Gaussian 16 at Fri Nov 10 15:55:39 2023.
