 Gaussian 16, Revision B.01,
 Gaussian 16:  EM64L-G16RevB.01 20-Dec-2017

 ---------------------------
 # B3LYP/6-31G(d,p) OPT FREQ
 ---------------------------

 ------
 10poly
 ------
 Symbolic Z-matrix:
 Charge =  0 Multiplicity = 1

 SCF Done:  E(RB3LYP) =  -775.264495978     A.U. after   13 cycles
 SCF Done:  E(RB3LYP) =  -775.283623848     A.U. after   12 cycles
 SCF Done:  E(RB3LYP) =  -775.286384771     A.U. after   12 cycles
 SCF Done:  E(RB3LYP) =  -775.286502592     A.U. after    9 cycles
 SCF Done:  E(RB3LYP) =  -775.286512242     A.U. after    8 cycles
 SCF Done:  E(RB3LYP) =  -775.286512592     A.U. after    7 cycles
 Optimization completed.
    -- Stationary point found.
 Normal termination of Gaussian 16 at Thu Nov  9 20:43:38 2023.

 ----------------------------------------------------------------------
 #N Geom=AllCheck Guess=TCheck SCRF=Check GenChk RB3LYP/6-31G(d,p) Freq
 ----------------------------------------------------------------------

 Structure from the checkpoint file:  "checkpoint.chk"
 ------
 10poly
 ------
 Charge =  0 Multiplicity = 1

                         Standard orientation:
 ---------------------------------------------------------------------
 Center     Atomic      Atomic             Coordinates (Angstroms)
 Number     Number       Type             X           Y           Z
 ---------------------------------------------------------------------
      1          6           0       11.725301   -0.241044   -0.000006
      2          6           0       10.534474    0.383212   -0.000005
      3          6           0        9.255240   -0.289486   -0.000004
      4          6           0        8.056561    0.349639   -0.000003
      5          6           0        6.782465   -0.309648   -0.000002
      6          6           0        5.582106    0.335962    0.000000
      7          6           0        4.309883   -0.318619    0.000001
      8          6           0        3.108624    0.329493    0.000003
      9          6           0        1.837210   -0.323099    0.000004
     10          6           0        0.635591    0.326010    0.000006
     11          6           0       -0.635590   -0.326012    0.000006
     12          6           0       -1.837209    0.323097    0.000007
     13          6           0       -3.108624   -0.329495    0.000007
     14          6           0       -4.309882    0.318618    0.000006
     15          6           0       -5.582107   -0.335962    0.000005
     16          6           0       -6.782465    0.309649    0.000002
     17          6           0       -8.056561   -0.349637   -0.000000
     18          6           0       -9.255240    0.289488   -0.000004
     19          6           0      -10.534474   -0.383211   -0.000008
     20          6           0      -11.725302    0.241044   -0.000012
     21          1           0       12.658619    0.311573   -0.000007
     22          1           0       11.797539   -1.325496   -0.000007
     23          1           0       10.508201    1.472964   -0.000004
     24          1           0        9.271085   -1.379582   -0.000005
     25          1           0        8.047645    1.440195   -0.000002
     26          1           0        6.788551   -1.399907   -0.000003
     27          1           0        5.578014    1.426423    0.000001
     28          1           0        4.312845   -1.408964   -0.000000
     29          1           0        3.106539    1.419920    0.000004
     30          1           0        1.838850   -1.413481    0.000003
     31          1           0        0.634203    1.416415    0.000007
     32          1           0       -0.634202   -1.416417    0.000006
     33          1           0       -1.838848    1.413479    0.000008
     34          1           0       -3.106539   -1.419922    0.000008
     35          1           0       -4.312843    1.408964    0.000006
     36          1           0       -5.578015   -1.426422    0.000006
     37          1           0       -6.788550    1.399908    0.000002
     38          1           0       -8.047646   -1.440193    0.000001
     39          1           0       -9.271086    1.379584   -0.000005
     40          1           0      -10.508200   -1.472963   -0.000006
     41          1           0      -11.797541    1.325496   -0.000013
     42          1           0      -12.658619   -0.311575   -0.000015
 ---------------------------------------------------------------------

 SCF Done:  E(RB3LYP) =  -775.286512592     A.U. after    1 cycles

 The electronic state is 1-A.
 Alpha  occ. eigenvalues --  -10.19496 -10.19488 -10.19479 -10.19470 -10.19459
 Alpha  occ. eigenvalues --  -10.19454 -10.19424 -10.19415 -10.19409 -10.19402
 Alpha  occ. eigenvalues --  -10.19395 -10.19390 -10.19375 -10.19375 -10.19348
 Alpha  occ. eigenvalues --  -10.19348 -10.19274 -10.19274 -10.18404 -10.18404
 Alpha  occ. eigenvalues --   -0.83244  -0.82740  -0.81947  -0.80872  -0.79523
 Alpha  occ. eigenvalues --   -0.77908  -0.76040  -0.73939  -0.71653  -0.69349
 Alpha  occ. eigenvalues --   -0.65129  -0.62384  -0.59475  -0.56831  -0.56702
 Alpha  occ. eigenvalues --   -0.56397  -0.55748  -0.55055  -0.54650  -0.54369
 Alpha  occ. eigenvalues --   -0.48877  -0.48642  -0.47269  -0.47258  -0.45579
 Alpha  occ. eigenvalues --   -0.44834  -0.43775  -0.42398  -0.41486  -0.40490
 Alpha  occ. eigenvalues --   -0.39470  -0.38849  -0.37932  -0.37497  -0.37006
 Alpha  occ. eigenvalues --   -0.36497  -0.35877  -0.35624  -0.35467  -0.35147
 Alpha  occ. eigenvalues --   -0.34980  -0.34705  -0.34583  -0.33949  -0.32540
 Alpha  occ. eigenvalues --   -0.30759  -0.28610  -0.26105  -0.23264  -0.20146
 Alpha  occ. eigenvalues --   -0.16979
 Alpha virt. eigenvalues --   -0.08796  -0.05340  -0.01734   0.01699   0.04762
 Alpha virt. eigenvalues --    0.07280   0.08382   0.09097   0.09119   0.10198
 Alpha virt. eigenvalues --    0.10237   0.10744   0.10874   0.11619   0.12617

 Mulliken charges:
               1
     1  C   -0.256206
     2  C   -0.029703
     3  C   -0.077227
     4  C   -0.075322
     5  C   -0.078741
     6  C   -0.076679
     7  C   -0.078264
     8  C   -0.077512
     9  C   -0.077981
    10  C   -0.077791
    11  C   -0.077791
    12  C   -0.077981
    13  C   -0.077512
    14  C   -0.078264
    15  C   -0.076679
    16  C   -0.078741
    17  C   -0.075322
    18  C   -0.077227
    19  C   -0.029703
    20  C   -0.256206
    21  H    0.101498
    22  H    0.097222
    23  H    0.081312
    24  H    0.078379
    25  H    0.078268
    26  H    0.078475
    27  H    0.078031
    28  H    0.078169
    29  H    0.078000
    30  H    0.078059
    31  H    0.078014
    32  H    0.078014
    33  H    0.078059
    34  H    0.078000
    35  H    0.078169
    36  H    0.078031
    37  H    0.078475
    38  H    0.078268
    39  H    0.078379
    40  H    0.081312
    41  H    0.097222
    42  H    0.101498
 Sum of Mulliken charges =  -0.00000

 Dipole moment (field-independent basis, Debye):
    X=              0.0000    Y=              0.0000    Z=              0.0000  Tot=              0.0000
 Quadrupole moment (field-independent basis, Debye-Ang):
   XX=           -111.8594   YY=           -107.0234   ZZ=           -130.8265
   XY=              0.3994   XZ=              0.0000   YZ=              0.0000

  Exact polarizability:1774.744 -85.928 181.971   0.000  -0.000  71.699
 Approx polarizability:2722.272-241.835 298.050   0.000  -0.000 109.587

                      1                      2                      3
                      A                      A                      A
 Frequencies --     10.8015                14.6609                29.6388
 Red. masses --      5.4559                 5.2304                 5.3492
 Frc consts  --      0.0004                 0.0007                 0.0028
 IR Inten    --      0.0121                 0.4325                 0.0000

                      4                      5                      6
                      A                      A                      A
 Frequencies --     40.3337                56.4549                72.8730
 Red. masses --      4.9281                 4.6224                 1.6272
 Frc consts  --      0.0047                 0.0087                 0.0051
 IR Inten    --      0.0000                 0.0354                 0.1518

                      7                      8                      9
                      A                      A                      A
 Frequencies --     77.8059                92.1213               125.7151
 Red. masses --      4.6134                 4.7740                 4.2987
 Frc consts  --      0.0165                 0.0239                 0.0400
 IR Inten    --      1.8071                 0.0000                 0.0000

                     10                     11                     12
                      A                      A                      A
 Frequencies --    134.4851               142.0517               144.8137
 Red. masses --      4.3960                 1.6845                 5.8980
 Frc consts  --      0.0468                 0.0200                 0.0729
 IR Inten    --      0.1387                 0.0000                 0.0000

                     13                     14                     15
                      A                      A                      A
 Frequencies --    182.2791               182.4176               205.7050
 Red. masses --      3.6615                 4.0023                 2.0040
 Frc consts  --      0.0717                 0.0785                 0.0500
 IR Inten    --      0.0000                 4.0104                 0.0795

                     16                     17                     18
                      A                      A                      A
 Frequencies --    233.2087               246.0702               260.1237
 Red. masses --      2.6646                 3.7320                 2.7790
 Frc consts  --      0.0854                 0.1331                 0.1108
 IR Inten    --      0.2907                 0.0000                 0.0000

                     19                     20                     21
                      A                      A                      A
 Frequencies --    281.2611               284.6385               301.5671
 Red. masses --      5.4419                 1.9609                 3.3226
 Frc consts  --      0.2536                 0.0936                 0.1780
 IR Inten    --     17.6550                 0.0000                 0.0001

                     22                     23                     24
                      A                      A                      A
 Frequencies --    315.1107               334.6358               380.0366
 Red. masses --      3.5435                 1.8469                 2.0590
 Frc consts  --      0.2073                 0.1219                 0.1752
 IR Inten    --      2.9059                 0.2984                 0.0000

                     25                     26                     27
                      A                      A                      A
 Frequencies --    381.1611               410.1206               416.1242
 Red. masses --      3.3407                 4.8644                 2.5493
 Frc consts  --      0.2860                 0.4821                 0.2601
 IR Inten    --      0.0000                 0.0000                 0.1442

                     28                     29                     30
                      A                      A                      A
 Frequencies --    439.0560               451.9112               511.9862
 Red. masses --      3.6384                 3.0601                 3.0440
 Frc consts  --      0.4132                 0.3682                 0.4701
 IR Inten    --      0.0000                10.6304                 0.0000

                     31                     32                     33
                      A                      A                      A
 Frequencies --    513.0503               574.0667               585.9452
 Red. masses --      4.2720                 3.0443                 3.5791
 Frc consts  --      0.6625                 0.5911                 0.7240
 IR Inten    --     10.0381                 3.4758                 0.0000

                     34                     35                     36
                      A                      A                      A
 Frequencies --    621.3626               627.3001               662.9280
 Red. masses --      3.1478                 3.2558                 1.3708
 Frc consts  --      0.7161                 0.7549                 0.3549
 IR Inten    --      0.0000                 2.6010                 7.0830

                     37                     38                     39
                      A                      A                      A
 Frequencies --    663.0317               836.7473               851.8974
 Red. masses --      1.3739                 1.3628                 1.5281
 Frc consts  --      0.3559                 0.5622                 0.6534
 IR Inten    --      0.0000                 0.1953                 0.0000

                     40                     41                     42
                      A                      A                      A
 Frequencies --    869.8333               885.5192               898.1288
 Red. masses --      1.7117                 1.8668                 1.9555
 Frc consts  --      0.7630                 0.8625                 0.9293
 IR Inten    --      1.0540                 0.0000                 4.2615

                     43                     44                     45
                      A                      A                      A
 Frequencies --    907.6708               914.0273               917.6023
 Red. masses --      1.9301                 1.7496                 1.6147
 Frc consts  --      0.9369                 0.8612                 0.8010
 IR Inten    --      0.0000                27.0575                 0.0000

                     46                     47                     48
                      A                      A                      A
 Frequencies --    920.1805               921.5457               929.5440
 Red. masses --      1.7083                 2.0352                 1.1591
 Frc consts  --      0.8522                 1.0183                 0.5901
 IR Inten    --     39.9041                 0.0000                 0.0000

                     49                     50                     51
                      A                      A                      A
 Frequencies --    942.4840               958.4472               966.8906
 Red. masses --      1.1456                 1.1306                 1.4932
 Frc consts  --      0.5995                 0.6119                 0.8225
 IR Inten    --      1.5496                 0.0000                 0.0000

                     52                     53                     54
                      A                      A                      A
 Frequencies --    966.9438               976.8057               996.6089
 Red. masses --      1.4928                 1.1144                 1.1014
 Frc consts  --      0.8223                 0.6265                 0.6445
 IR Inten    --      1.9524                 1.6267                 0.0000

                     55                     56                     57
                      A                      A                      A
 Frequencies --   1016.3421              1034.1737              1048.4443
 Red. masses --      1.0939                 1.0909                 1.0902
 Frc consts  --      0.6657                 0.6874                 0.7061
 IR Inten    --      1.3399                 0.0000                 1.0672

                     58                     59                     60
                      A                      A                      A
 Frequencies --   1057.8813              1061.3529              1161.9026
 Red. masses --      1.0902                 1.0875                 2.5714
 Frc consts  --      0.7188                 0.7218                 2.0453
 IR Inten    --      0.0000               223.6579                 0.0000

                     61                     62                     63
                      A                      A                      A
 Frequencies --   1166.2069              1169.9167              1175.9457
 Red. masses --      3.6885                 1.9141                 1.7184
 Frc consts  --      2.9556                 1.5436                 1.4000
 IR Inten    --      0.1245                 2.0563                 0.0000

                     64                     65                     66
                      A                      A                      A
 Frequencies --   1184.7679              1192.1365              1193.7900
 Red. masses --      3.7603                 1.6454                 1.3489
 Frc consts  --      3.1099                 1.3778                 1.1327
 IR Inten    --      0.0000                 0.0000                66.1012

                     67                     68                     69
                      A                      A                      A
 Frequencies --   1210.5163              1222.4369              1231.1315
 Red. masses --      3.3528                 1.3597                 2.6394
 Frc consts  --      2.8946                 1.1971                 2.3570
 IR Inten    --      0.0028                64.9801                 0.0000

                     70                     71                     72
                      A                      A                      A
 Frequencies --   1243.2006              1262.2955              1281.4081
 Red. masses --      1.3365                 1.2839                 1.2512
 Frc consts  --      1.2171                 1.2053                 1.2104
 IR Inten    --      0.0000                22.3567                 0.0000

                     73                     74                     75
                      A                      A                      A
 Frequencies --   1301.5701              1317.8148              1321.3112
 Red. masses --      1.2656                 1.4127                 1.7636
 Frc consts  --      1.2632                 1.4454                 1.8141
 IR Inten    --     12.3935                 0.0000                 0.0000

                     76                     77                     78
                      A                      A                      A
 Frequencies --   1321.3246              1323.3126              1325.3091
 Red. masses --      1.5864                 1.8022                 1.5186
 Frc consts  --      1.6318                 1.8594                 1.5715
 IR Inten    --      0.6644                90.2730                24.7379

                     79                     80                     81
                      A                      A                      A
 Frequencies --   1327.6359              1329.3271              1331.1066
 Red. masses --      2.2892                 1.4792                 1.3568
 Frc consts  --      2.3773                 1.5401                 1.4164
 IR Inten    --      0.0000                 0.0000                 0.0000

                     82                     83                     84
                      A                      A                      A
 Frequencies --   1333.1455              1336.2601              1342.0490
 Red. masses --      1.3318                 1.3123                 1.2961
 Frc consts  --      1.3946                 1.3806                 1.3754
 IR Inten    --      1.0403                 1.5891                 0.0000

                     85                     86                     87
                      A                      A                      A
 Frequencies --   1371.9537              1413.6323              1465.4144
 Red. masses --      1.4547                 1.6722                 1.3065
 Frc consts  --      1.6132                 1.9689                 1.6530
 IR Inten    --      1.4499                 0.0000                 3.8064

                     88                     89                     90
                      A                      A                      A
 Frequencies --   1468.4079              1583.6013              1594.7782
 Red. masses --      1.3275                 2.9926                 4.7369
 Frc consts  --      1.6865                 4.4216                 7.0982
 IR Inten    --      0.0000                 0.0000                 0.7261

                     91                     92                     93
                      A                      A                      A
 Frequencies --   1625.9420              1641.8136              1653.5009
 Red. masses --      4.5058                 3.8479                 4.4579
 Frc consts  --      7.0183                 6.1111                 7.1812
 IR Inten    --      0.0000                 1.8158                 7.3556

                     94                     95                     96
                      A                      A                      A
 Frequencies --   1675.5739              1677.0166              1689.2106
 Red. masses --      4.5235                 4.4706                 4.7992
 Frc consts  --      7.4827                 7.4079                 8.0683
 IR Inten    --      0.0000                 0.0000                 2.4592

                     97                     98                     99
                      A                      A                      A
 Frequencies --   1698.7785              1700.7565              3137.5457
 Red. masses --      4.4306                 4.5552                 1.0884
 Frc consts  --      7.5333                 7.7631                 6.3129
 IR Inten    --     30.7295                 0.0000                 1.7677

                    100                    101                    102
                      A                      A                      A
 Frequencies --   3137.6944              3137.9287              3138.2823
 Red. masses --      1.0885                 1.0882                 1.0887
 Frc consts  --      6.3142                 6.3130                 6.3175
 IR Inten    --      0.0000                 0.0000                 4.0161

                    103                    104                    105
                      A                      A                      A
 Frequencies --   3139.1824              3140.1117              3140.8265
 Red. masses --      1.0889                 1.0889                 1.0909
 Frc consts  --      6.3220                 6.3259                 6.3404
 IR Inten    --      0.0000                 2.9396                26.2808

                    106                    107                    108
                      A                      A                      A
 Frequencies --   3140.9666              3141.9284              3142.0659
 Red. masses --      1.0881                 1.0877                 1.0907
 Frc consts  --      6.3249                 6.3261                 6.3444
 IR Inten    --      0.0000                54.8544                 0.0000

                    109                    110                    111
                      A                      A                      A
 Frequencies --   3143.4448              3145.5438              3147.7785
 Red. masses --      1.0882                 1.0878                 1.0870
 Frc consts  --      6.3354                 6.3415                 6.3458
 IR Inten    --      0.0000                 3.5076                 0.0000

                    112                    113                    114
                      A                      A                      A
 Frequencies --   3149.8971              3151.7863              3153.3611
 Red. masses --      1.0861                 1.0854                 1.0849
 Frc consts  --      6.3494                 6.3524                 6.3558
 IR Inten    --      1.8842                 0.0000                 6.7219

                    115                    116                    117
                      A                      A                      A
 Frequencies --   3154.5333              3155.0190              3158.7099
 Red. masses --      1.0848                 1.0850                 1.0668
 Frc consts  --      6.3602                 6.3631                 6.2711
 IR Inten    --      0.0000               379.9483                31.9134

                    118                    119                    120
                      A                      A                      A
 Frequencies --   3158.7266              3247.9177              3247.9181
 Red. masses --      1.0669                 1.1158                 1.1158
 Frc consts  --      6.2719                 6.9350                 6.9349
 IR Inten    --      0.0020                30.4610                 0.1817

 - Thermochemistry -
 -------------------
 Temperature   298.150 Kelvin.  Pressure   1.00000 Atm.
 Atom     1 has atomic number  6 and mass  12.00000

 Molecular mass:   262.17215 amu.
 Principal axes and moments of inertia in atomic units:
                           1         2         3
     Eigenvalues --   233.13974********************
           X            1.00000  -0.00034   0.00000
           Y            0.00034   1.00000   0.00000
           Z           -0.00000  -0.00000   1.00000
 This molecule is an asymmetric top.
 Rotational symmetry number  1.
 Rotational temperatures (Kelvin)      0.37151     0.00179     0.00178
 Rotational constants (GHZ):           7.74103     0.03731     0.03713
 Zero-point vibrational energy     928082.6 (Joules/Mol)
                                  221.81707 (Kcal/Mol)
 Warning -- explicit consideration of  33 degrees of freedom as
           vibrations may cause significant error
 Vibrational temperatures:     15.54    21.09    42.64    58.03    81.23
          (Kelvin)            104.85   111.95   132.54   180.88   193.49
                              204.38   208.35   262.26   262.46   295.96
                              335.54   354.04   374.26   404.67   409.53
                              433.89   453.37   481.47   546.79   548.41
                              590.07   598.71   631.70   650.20   736.63
                              738.16   825.95   843.04   894.00   902.54
                              953.81   953.95  1203.89  1225.69  1251.50
                             1274.06  1292.21  1305.94  1315.08  1320.23
                             1323.93  1325.90  1337.41  1356.02  1378.99
                             1391.14  1391.22  1405.41  1433.90  1462.29
                             1487.95  1508.48  1522.06  1527.05  1671.72
                             1677.91  1683.25  1691.92  1704.62  1715.22
                             1717.60  1741.66  1758.81  1771.32  1788.69
                             1816.16  1843.66  1872.67  1896.04  1901.07
                             1901.09  1903.95  1906.82  1910.17  1912.61
                             1915.17  1918.10  1922.58  1930.91  1973.94
                             2033.90  2108.40  2112.71  2278.45  2294.53
                             2339.37  2362.20  2379.02  2410.78  2412.85
                             2430.40  2444.16  2447.01  4514.23  4514.44
                             4514.78  4515.29  4516.58  4517.92  4518.95
                             4519.15  4520.53  4520.73  4522.72  4525.74
                             4528.95  4532.00  4534.72  4536.98  4538.67
                             4539.37  4544.68  4544.70  4673.03  4673.03

 Zero-point correction=                           0.353488 (Hartree/Particle)
 Thermal correction to Energy=                    0.375487
 Thermal correction to Enthalpy=                  0.376431
 Thermal correction to Gibbs Free Energy=         0.299042
 Sum of electronic and zero-point Energies=           -774.933025
 Sum of electronic and thermal Energies=              -774.911025
 Sum of electronic and thermal Enthalpies=            -774.910081
 Sum of electronic and thermal Free Energies=         -774.987471

                     E (Thermal)             CV                S
                      KCal/Mol        Cal/Mol-Kelvin    Cal/Mol-Kelvin
 Total                  235.622             80.426            162.880
 Electronic               0.000              0.000              0.000
 Translational            0.889              2.981             42.591
 Rotational               0.889              2.981             34.660
 Vibrational            233.844             74.464             85.630
 Vibration     1          0.593              1.987              7.858
 Vibration     2          0.593              1.986              7.251
 Vibration     3          0.593              1.984              5.853
 Vibration     4          0.594              1.981              5.243
 Vibration     5          0.596              1.975              4.577
 Vibration     6          0.599              1.967              4.074
 Vibration     7          0.599              1.964              3.945
 Vibration     8          0.602              1.955              3.615
 Vibration     9          0.611              1.927              3.011
 Vibration    10          0.613              1.919              2.881
 Vibration    11          0.616              1.911              2.776
 Vibration    12          0.616              1.908              2.739
 Vibration    13          0.630              1.864              2.305
 Vibration    14          0.630              1.864              2.304
 Vibration    15          0.640              1.832              2.081
 Vibration    16          0.654              1.790              1.854
 Vibration    17          0.661              1.769              1.759
 Vibration    18          0.668              1.746              1.661
 Vibration    19          0.681              1.708              1.526
 Vibration    20          0.683              1.702              1.506
 Vibration    21          0.694              1.671              1.408
 Vibration    22          0.702              1.645              1.335
 Vibration    23          0.716              1.606              1.238
 Vibration    24          0.750              1.513              1.039
 Vibration    25          0.751              1.510              1.035
 Vibration    26          0.774              1.448              0.926
 Vibration    27          0.779              1.435              0.905
 Vibration    28          0.799              1.385              0.830
 Vibration    29          0.811              1.357              0.790
 Vibration    30          0.867              1.223              0.629
 Vibration    31          0.868              1.221              0.626
 Vibration    32          0.930              1.087              0.496
 Vibration    33          0.943              1.062              0.474

 Optimization completed.
    -- Stationary point found.
 Normal termination of Gaussian 16 at Thu Nov  9 21:07:56 2023.
