 Gaussian 16, Revision B.01,
 Gaussian 16:  EM64L-G16RevB.01 20-Dec-2017

 ---------------------------
 # B3LYP/6-31G(d,p) OPT FREQ
 ---------------------------

 -----
 4poly
 -----
 Symbolic Z-matrix:
 Charge =  0 Multiplicity = 1

 SCF Done:  E(RB3LYP) =  -310.815370611     A.U. after   13 cycles
 SCF Done:  E(RB3LYP) =  -310.821270833     A.U. after   11 cycles
 SCF Done:  E(RB3LYP) =  -310.821545000     A.U. after   11 cycles
 SCF Done:  E(RB3LYP) =  -310.821556650     A.U. after    7 cycles
 Optimization completed.
    -- Stationary point found.
 Normal termination of Gaussian 16 at Thu Nov  9 19:32:37 2023.

 ----------------------------------------------------------------------
 #N Geom=AllCheck Guess=TCheck SCRF=Check GenChk RB3LYP/6-31G(d,p) Freq
 ----------------------------------------------------------------------

 Structure from the checkpoint file:  "checkpoint.chk"
 -----
 4poly
 -----
 Charge =  0 Multiplicity = 1

                         Standard orientation:
 ---------------------------------------------------------------------
 Center     Atomic      Atomic             Coordinates (Angstroms)
 Number     Number       Type             X           Y           Z
 ---------------------------------------------------------------------
      1          6           0        4.308727   -0.197658    0.000002
      2          6           0        3.111418    0.411733    0.000001
      3          6           0        1.839229   -0.278826   -0.000002
      4          6           0        0.634372    0.341381   -0.000002
      5          6           0       -0.634367   -0.341309   -0.000002
      6          6           0       -1.839238    0.278869   -0.000002
      7          6           0       -3.111398   -0.411744    0.000001
      8          6           0       -4.308742    0.197576    0.000002
      9          1           0        5.235595    0.365728    0.000004
     10          1           0        4.393471   -1.281241    0.000001
     11          1           0        3.070203    1.501017    0.000002
     12          1           0        1.871931   -1.368702   -0.000003
     13          1           0        0.606300    1.431529   -0.000001
     14          1           0       -0.606275   -1.431457   -0.000001
     15          1           0       -1.871974    1.368743   -0.000003
     16          1           0       -3.070121   -1.501027    0.000002
     17          1           0       -4.393554    1.281153    0.000001
     18          1           0       -5.235575   -0.365869    0.000004
 ---------------------------------------------------------------------

 SCF Done:  E(RB3LYP) =  -310.821556650     A.U. after    1 cycles

 The electronic state is 1-A.
 Alpha  occ. eigenvalues --  -10.19404 -10.19373 -10.19356 -10.19353 -10.19272
 Alpha  occ. eigenvalues --  -10.19267 -10.18412 -10.18412  -0.82378  -0.79787
 Alpha  occ. eigenvalues --   -0.75875  -0.70994  -0.62886  -0.56954  -0.56062
 Alpha  occ. eigenvalues --   -0.54617  -0.48054  -0.47054  -0.44461  -0.42064
 Alpha  occ. eigenvalues --   -0.39760  -0.38338  -0.36839  -0.35264  -0.34595
 Alpha  occ. eigenvalues --   -0.34416  -0.31321  -0.26256  -0.19766
 Alpha virt. eigenvalues --   -0.05843   0.01763   0.07806   0.09395   0.10572
 Alpha virt. eigenvalues --    0.12402   0.12639   0.12787   0.15273   0.15528
 Alpha virt. eigenvalues --    0.17129   0.19331   0.19949   0.20192   0.28695

 Mulliken charges:
               1
     1  C   -0.255774
     2  C   -0.029590
     3  C   -0.076263
     4  C   -0.076040
     5  C   -0.076042
     6  C   -0.076261
     7  C   -0.029591
     8  C   -0.255775
     9  H    0.101593
    10  H    0.097264
    11  H    0.081570
    12  H    0.078438
    13  H    0.078802
    14  H    0.078802
    15  H    0.078438
    16  H    0.081569
    17  H    0.097264
    18  H    0.101593
 Sum of Mulliken charges =  -0.00000

 Dipole moment (field-independent basis, Debye):
    X=              0.0001    Y=              0.0000    Z=              0.0000  Tot=              0.0001
 Quadrupole moment (field-independent basis, Debye-Ang):
   XX=            -44.8296   YY=            -43.7513   ZZ=            -53.6034
   XY=              0.0758   XZ=              0.0000   YZ=              0.0000

  Exact polarizability: 266.900 -19.510  75.633   0.000   0.000  30.021
 Approx polarizability: 445.532 -57.831 116.392  -0.000   0.000  44.387

                      1                      2                      3
                      A                      A                      A
 Frequencies --     62.5075                86.8443               157.3598
 Red. masses --      4.0112                 3.5809                 3.3737
 Frc consts  --      0.0092                 0.0159                 0.0492
 IR Inten    --      0.1500                 1.4766                 0.0000

                      4                      5                      6
                      A                      A                      A
 Frequencies --    178.6559               222.2308               260.3093
 Red. masses --      1.6861                 3.0199                 2.6644
 Frc consts  --      0.0317                 0.0879                 0.1064
 IR Inten    --      0.4203                 0.0000                 0.3782

                      7                      8                      9
                      A                      A                      A
 Frequencies --    342.3681               353.2740               389.2850
 Red. masses --      4.9092                 1.9309                 2.6110
 Frc consts  --      0.3390                 0.1420                 0.2331
 IR Inten    --      0.0000                 0.0000                 6.2381

                     10                     11                     12
                      A                      A                      A
 Frequencies --    542.1633               573.1031               646.4345
 Red. masses --      2.6332                 3.5029                 1.2456
 Frc consts  --      0.4560                 0.6779                 0.3067
 IR Inten    --      0.0000                 6.2313                 6.9771

                     13                     14                     15
                      A                      A                      A
 Frequencies --    683.1153               872.9525               910.1309
 Red. masses --      1.5334                 1.7316                 1.7227
 Frc consts  --      0.4216                 0.7775                 0.8407
 IR Inten    --      0.0000                 3.2762                 0.0000

                     16                     17                     18
                      A                      A                      A
 Frequencies --    920.8853               923.5067               956.0028
 Red. masses --      1.3898                 1.5973                 1.5661
 Frc consts  --      0.6944                 0.8026                 0.8433
 IR Inten    --     70.7027                 0.0000                 1.3024

                     19                     20                     21
                      A                      A                      A
 Frequencies --    958.9184               975.7614              1000.0880
 Red. masses --      1.1704                 1.4266                 1.1229
 Frc consts  --      0.6341                 0.8003                 0.6617
 IR Inten    --      0.0000                 0.0000                 3.4317

                     22                     23                     24
                      A                      A                      A
 Frequencies --   1042.6737              1062.4250              1170.2700
 Red. masses --      1.0993                 1.0909                 1.7260
 Frc consts  --      0.7041                 0.7255                 1.3927
 IR Inten    --      0.0000                73.8364                14.8017

                     25                     26                     27
                      A                      A                      A
 Frequencies --   1178.3675              1220.9105              1264.7880
 Red. masses --      3.5038                 1.7928                 1.3334
 Frc consts  --      2.8665                 1.5746                 1.2567
 IR Inten    --      0.0000                 0.0000                 8.8747

                     28                     29                     30
                      A                      A                      A
 Frequencies --   1314.6384              1322.6687              1327.2498
 Red. masses --      1.3787                 1.3737                 1.6971
 Frc consts  --      1.4039                 1.4160                 1.7614
 IR Inten    --      0.0000                 5.6943                 0.0000

                     31                     32                     33
                      A                      A                      A
 Frequencies --   1338.1414              1345.8339              1453.5554
 Red. masses --      1.2964                 1.3233                 1.2789
 Frc consts  --      1.3677                 1.4122                 1.5920
 IR Inten    --      0.6294                 0.0000                 1.1623

                     34                     35                     36
                      A                      A                      A
 Frequencies --   1474.4388              1639.0134              1684.8910
 Red. masses --      1.2761                 4.1237                 4.6508
 Frc consts  --      1.6345                 6.5269                 7.7790
 IR Inten    --      0.0000                 6.4256                 0.0000

                     37                     38                     39
                      A                      A                      A
 Frequencies --   1687.6691              1711.6155              3138.1285
 Red. masses --      4.0348                 4.6440                 1.0874
 Frc consts  --      6.7709                 8.0159                 6.3095
 IR Inten    --      0.0000                15.5514                 0.0000

                     40                     41                     42
                      A                      A                      A
 Frequencies --   3139.5104              3141.6742              3144.6630
 Red. masses --      1.0884                 1.0878                 1.0865
 Frc consts  --      6.3204                 6.3258                 6.3302
 IR Inten    --      2.6026                 0.0000                 0.4760

                     43                     44                     45
                      A                      A                      A
 Frequencies --   3150.6263              3153.8733              3158.5470
 Red. masses --      1.0839                 1.0838                 1.0674
 Frc consts  --      6.3392                 6.3516                 6.2743
 IR Inten    --      0.0000                92.6601                12.8304

                     46                     47                     48
                      A                      A                      A
 Frequencies --   3158.6179              3247.6641              3247.6749
 Red. masses --      1.0679                 1.1158                 1.1158
 Frc consts  --      6.2772                 6.9337                 6.9338
 IR Inten    --      0.0000                 0.0095                28.4144

 - Thermochemistry -
 -------------------
 Temperature   298.150 Kelvin.  Pressure   1.00000 Atm.
 Atom     1 has atomic number  6 and mass  12.00000

 Molecular mass:   106.07825 amu.
 Principal axes and moments of inertia in atomic units:
                           1         2         3
     Eigenvalues --    91.747193177.234443268.98164
           X            1.00000  -0.00184   0.00000
           Y            0.00184   1.00000   0.00000
           Z           -0.00000  -0.00000   1.00000
 This molecule is an asymmetric top.
 Rotational symmetry number  1.
 Rotational temperatures (Kelvin)      0.94405     0.02726     0.02650
 Rotational constants (GHZ):          19.67081     0.56802     0.55208
 Zero-point vibrational energy     400366.3 (Joules/Mol)
                                   95.68985 (Kcal/Mol)
 Warning -- explicit consideration of  11 degrees of freedom as
           vibrations may cause significant error
 Vibrational temperatures:     89.93   124.95   226.41   257.05   319.74
          (Kelvin)            374.53   492.59   508.28   560.09   780.05
                              824.57   930.08   982.85  1255.98  1309.48
                             1324.95  1328.72  1375.47  1379.67  1403.90
                             1438.90  1500.17  1528.59  1683.76  1695.41
                             1756.62  1819.75  1891.47  1903.03  1909.62
                             1925.29  1936.35  2091.34  2121.39  2358.17
                             2424.18  2428.18  2462.63  4515.07  4517.06
                             4520.17  4524.47  4533.05  4537.72  4544.44
                             4544.55  4672.66  4672.68

 Zero-point correction=                           0.152491 (Hartree/Particle)
 Thermal correction to Energy=                    0.161362
 Thermal correction to Enthalpy=                  0.162306
 Thermal correction to Gibbs Free Energy=         0.118863
 Sum of electronic and zero-point Energies=           -310.669065
 Sum of electronic and thermal Energies=              -310.660195
 Sum of electronic and thermal Enthalpies=            -310.659251
 Sum of electronic and thermal Free Energies=         -310.702694

                     E (Thermal)             CV                S
                      KCal/Mol        Cal/Mol-Kelvin    Cal/Mol-Kelvin
 Total                  101.256             31.951             91.435
 Electronic               0.000              0.000              0.000
 Translational            0.889              2.981             39.894
 Rotational               0.889              2.981             28.346
 Vibrational             99.479             25.990             23.195
 Vibration     1          0.597              1.972              4.376
 Vibration     2          0.601              1.958              3.730
 Vibration     3          0.621              1.894              2.581
 Vibration     4          0.629              1.869              2.342
 Vibration     5          0.648              1.807              1.941
 Vibration     6          0.668              1.745              1.660
 Vibration     7          0.721              1.591              1.201
 Vibration     8          0.729              1.569              1.152
 Vibration     9          0.757              1.493              1.003
 Vibration    10          0.897              1.157              0.561
 Vibration    11          0.929              1.089              0.498

                           ! Non-Optimized Parameters !
 Normal termination of Gaussian 16 at Thu Nov  9 19:40:16 2023.
