 Gaussian 16, Revision B.01,
 Gaussian 16:  EM64L-G16RevB.01 20-Dec-2017

 ---------------------------
 # B3LYP/6-31G(d,p) OPT FREQ
 ---------------------------

 -----
 5poly
 -----
 Symbolic Z-matrix:
 Charge =  0 Multiplicity = 1

 SCF Done:  E(RB3LYP) =  -388.223499960     A.U. after   13 cycles
 SCF Done:  E(RB3LYP) =  -388.231670282     A.U. after   11 cycles
 SCF Done:  E(RB3LYP) =  -388.232131056     A.U. after   11 cycles
 SCF Done:  E(RB3LYP) =  -388.232152535     A.U. after    8 cycles
 SCF Done:  E(RB3LYP) =  -388.232153596     A.U. after    7 cycles
 Optimization completed.
    -- Stationary point found.
 Normal termination of Gaussian 16 at Thu Nov  9 19:26:43 2023.

 ----------------------------------------------------------------------
 #N Geom=AllCheck Guess=TCheck SCRF=Check GenChk RB3LYP/6-31G(d,p) Freq
 ----------------------------------------------------------------------

 Structure from the checkpoint file:  "checkpoint.chk"
 -----
 5poly
 -----
 Charge =  0 Multiplicity = 1

                         Standard orientation:
 ---------------------------------------------------------------------
 Center     Atomic      Atomic             Coordinates (Angstroms)
 Number     Number       Type             X           Y           Z
 ---------------------------------------------------------------------
      1          6           0        5.544109   -0.214740   -0.000004
      2          6           0        4.350477    0.402869   -0.000002
      3          6           0        3.074222   -0.277944    0.000001
      4          6           0        1.872987    0.352727    0.000002
      5          6           0        0.601024   -0.317189    0.000003
      6          6           0       -0.601025    0.317223    0.000003
      7          6           0       -1.872983   -0.352702    0.000002
      8          6           0       -3.074227    0.277952    0.000001
      9          6           0       -4.350470   -0.402884   -0.000002
     10          6           0       -5.544115    0.214697   -0.000004
     11          1           0        6.474582    0.342690   -0.000006
     12          1           0        5.622065   -1.298827   -0.000004
     13          1           0        4.317647    1.492433   -0.000002
     14          1           0        3.097425   -1.367978    0.000001
     15          1           0        1.855608    1.443152    0.000002
     16          1           0        0.616838   -1.407447    0.000003
     17          1           0       -0.616841    1.407480    0.000003
     18          1           0       -1.855591   -1.443128    0.000002
     19          1           0       -3.097446    1.367986    0.000001
     20          1           0       -4.317615   -1.492448   -0.000002
     21          1           0       -5.622097    1.298783   -0.000004
     22          1           0       -6.474575   -0.342754   -0.000006
 ---------------------------------------------------------------------

 SCF Done:  E(RB3LYP) =  -388.232153596     A.U. after    1 cycles

 The electronic state is 1-A.
 Alpha  occ. eigenvalues --  -10.19452 -10.19411 -10.19394 -10.19365 -10.19355
 Alpha  occ. eigenvalues --  -10.19354 -10.19276 -10.19276 -10.18410 -10.18410
 Alpha  occ. eigenvalues --   -0.82727  -0.80950  -0.78225  -0.74645  -0.70493
 Alpha  occ. eigenvalues --   -0.63569  -0.58444  -0.56405  -0.55090  -0.54668
 Alpha  occ. eigenvalues --   -0.48432  -0.47610  -0.44609  -0.44572  -0.40781
 Alpha  occ. eigenvalues --   -0.40445  -0.37795  -0.37721  -0.36059  -0.35006
 Alpha  occ. eigenvalues --   -0.35003  -0.34469  -0.32754  -0.29228  -0.24515
 Alpha  occ. eigenvalues --   -0.18930
 Alpha virt. eigenvalues --   -0.06738  -0.00310   0.05431   0.09006   0.09271
 Alpha virt. eigenvalues --    0.10741   0.11250   0.12601   0.12713   0.14134
 Alpha virt. eigenvalues --    0.15161   0.15278   0.16318   0.18240   0.19272

 Mulliken charges:
               1
     1  C   -0.255985
     2  C   -0.029642
     3  C   -0.076926
     4  C   -0.075629
     5  C   -0.077516
     6  C   -0.077516
     7  C   -0.075630
     8  C   -0.076926
     9  C   -0.029642
    10  C   -0.255985
    11  H    0.101544
    12  H    0.097247
    13  H    0.081452
    14  H    0.078411
    15  H    0.078493
    16  H    0.078552
    17  H    0.078553
    18  H    0.078493
    19  H    0.078411
    20  H    0.081452
    21  H    0.097247
    22  H    0.101543
 Sum of Mulliken charges =  -0.00000

 Dipole moment (field-independent basis, Debye):
    X=              0.0000    Y=              0.0000    Z=             -0.0000  Tot=              0.0000
 Quadrupole moment (field-independent basis, Debye-Ang):
   XX=            -55.9176   YY=            -54.2935   ZZ=            -66.4735
   XY=              0.1278   XZ=             -0.0000   YZ=              0.0000

  Exact polarizability: 415.826 -27.995  93.377   0.000   0.000  36.979
 Approx polarizability: 690.623 -83.190 146.630   0.000  -0.000  55.254

                      1                      2                      3
                      A                      A                      A
 Frequencies --     41.4239                56.9133               109.1396
 Red. masses --      4.4749                 4.0514                 3.9771
 Frc consts  --      0.0045                 0.0077                 0.0279
 IR Inten    --      0.0888                 1.1193                 0.0000

                      4                      5                      6
                      A                      A                      A
 Frequencies --    139.7822               149.9935               200.9165
 Red. masses --      1.7137                 3.5160                 2.8640
 Frc consts  --      0.0197                 0.0466                 0.0681
 IR Inten    --      0.1933                 0.0000                 0.5065

                      7                      8                      9
                      A                      A                      A
 Frequencies --    253.0842               273.8517               279.3610
 Red. masses --      2.5786                 3.0877                 5.1986
 Frc consts  --      0.0973                 0.1364                 0.2390
 IR Inten    --      0.0000                 4.7481                 0.0000

                     10                     11                     12
                      A                      A                      A
 Frequencies --    299.1768               396.1080               413.3170
 Red. masses --      1.9195                 2.2897                 2.7643
 Frc consts  --      0.1012                 0.2117                 0.2782
 IR Inten    --      0.0000                 0.4831                 0.0000

                     13                     14                     15
                      A                      A                      A
 Frequencies --    490.8638               551.3238               602.6351
 Red. masses --      3.5384                 3.1637                 3.0580
 Frc consts  --      0.5023                 0.5666                 0.6543
 IR Inten    --     14.2106                 0.1012                 0.0000

                     16                     17                     18
                      A                      A                      A
 Frequencies --    656.8191               671.2634               856.7047
 Red. masses --      1.3008                 1.4612                 1.6095
 Frc consts  --      0.3306                 0.3879                 0.6960
 IR Inten    --      0.0000                 7.1217                 0.0000

                     19                     20                     21
                      A                      A                      A
 Frequencies --    894.4339               913.6620               919.8602
 Red. masses --      1.8621                 1.6561                 1.4156
 Frc consts  --      0.8777                 0.8145                 0.7057
 IR Inten    --      6.3349                 0.0000                65.4862

                     22                     23                     24
                      A                      A                      A
 Frequencies --    922.8981               949.0992               965.6974
 Red. masses --      1.7328                 1.1638                 1.4790
 Frc consts  --      0.8696                 0.6177                 0.8127
 IR Inten    --      0.0000                 2.9056                 1.2892

                     25                     26                     27
                      A                      A                      A
 Frequencies --    967.3328               980.7665              1017.6856
 Red. masses --      1.5150                 1.1329                 1.1036
 Frc consts  --      0.8353                 0.6421                 0.6734
 IR Inten    --      0.0000                 0.0000                 2.5622

                     28                     29                     30
                      A                      A                      A
 Frequencies --   1048.8847              1061.9455              1159.8101
 Red. masses --      1.0957                 1.0899                 2.7250
 Frc consts  --      0.7103                 0.7242                 2.1597
 IR Inten    --      0.0000                98.8290                 0.0000

                     31                     32                     33
                      A                      A                      A
 Frequencies --   1178.4648              1196.9490              1214.8738
 Red. masses --      1.6110                 3.1952                 1.7484
 Frc consts  --      1.3182                 2.6971                 1.5204
 IR Inten    --     22.2350                 1.0305                 0.0000

                     34                     35                     36
                      A                      A                      A
 Frequencies --   1251.8276              1290.5440              1318.7982
 Red. masses --      1.3595                 1.2830                 1.4566
 Frc consts  --      1.2552                 1.2590                 1.4926
 IR Inten    --     17.8146                 0.0000                12.3750

                     37                     38                     39
                      A                      A                      A
 Frequencies --   1325.7819              1327.7003              1330.8404
 Red. masses --      1.6462                 1.5817                 1.3356
 Frc consts  --      1.7048                 1.6427                 1.3938
 IR Inten    --      0.0000                 0.0000                 1.4739

                     40                     41                     42
                      A                      A                      A
 Frequencies --   1338.9014              1363.0065              1458.2519
 Red. masses --      1.2986                 1.3974                 1.2877
 Frc consts  --      1.3716                 1.5295                 1.6133
 IR Inten    --      0.0000                 1.1066                 0.0000

                     43                     44                     45
                      A                      A                      A
 Frequencies --   1472.3769              1627.0269              1661.5851
 Red. masses --      1.2930                 4.3155                 4.1636
 Frc consts  --      1.6516                 6.7308                 6.7728
 IR Inten    --      0.9687                 0.0000                 0.0000

                     46                     47                     48
                      A                      A                      A
 Frequencies --   1672.4062              1702.2430              1705.0074
 Red. masses --      4.2184                 4.4818                 4.6511
 Frc consts  --      6.9515                 7.6514                 7.9664
 IR Inten    --     11.6855                 0.0000                13.8737

                     49                     50                     51
                      A                      A                      A
 Frequencies --   3137.5125              3139.1321              3141.0096
 Red. masses --      1.0882                 1.0879                 1.0861
 Frc consts  --      6.3116                 6.3164                 6.3133
 IR Inten    --      1.8116                 0.0000                 7.7816

                     52                     53                     54
                      A                      A                      A
 Frequencies --   3141.0912              3143.7293              3148.3893
 Red. masses --      1.0910                 1.0870                 1.0859
 Frc consts  --      6.3421                 6.3297                 6.3419
 IR Inten    --      0.0000                 0.0000                 1.3559

                     55                     56                     57
                      A                      A                      A
 Frequencies --   3152.2858              3154.4771              3158.5507
 Red. masses --      1.0841                 1.0845                 1.0672
 Frc consts  --      6.3471                 6.3579                 6.2728
 IR Inten    --      0.0000               127.5264                16.3426

                     58                     59                     60
                      A                      A                      A
 Frequencies --   3158.5997              3247.6399              3247.6450
 Red. masses --      1.0676                 1.1158                 1.1158
 Frc consts  --      6.2758                 6.9336                 6.9337
 IR Inten    --      0.0001                 0.0132                28.6847

 - Thermochemistry -
 -------------------
 Temperature   298.150 Kelvin.  Pressure   1.00000 Atm.
 Atom     1 has atomic number  6 and mass  12.00000

 Molecular mass:   132.09390 amu.
 Principal axes and moments of inertia in atomic units:
                           1         2         3
     Eigenvalues --   115.500586158.106626273.60721
           X            1.00000  -0.00125   0.00000
           Y            0.00125   1.00000   0.00000
           Z           -0.00000  -0.00000   1.00000
 This molecule is an asymmetric top.
 Rotational symmetry number  1.
 Rotational temperatures (Kelvin)      0.74990     0.01407     0.01381
 Rotational constants (GHZ):          15.62539     0.29307     0.28767
 Zero-point vibrational energy     488383.8 (Joules/Mol)
                                  116.72654 (Kcal/Mol)
 Warning -- explicit consideration of  15 degrees of freedom as
           vibrations may cause significant error
 Vibrational temperatures:     59.60    81.89   157.03   201.12   215.81
          (Kelvin)            289.07   364.13   394.01   401.94   430.45
                              569.91   594.67   706.24   793.23   867.06
                              945.02   965.80  1232.61  1286.89  1314.56
                             1323.47  1327.84  1365.54  1389.42  1391.78
                             1411.10  1464.22  1509.11  1527.90  1668.71
                             1695.55  1722.14  1747.93  1801.10  1856.80
                             1897.46  1907.50  1910.26  1914.78  1926.38
                             1961.06  2098.10  2118.42  2340.93  2390.65
                             2406.22  2449.15  2453.13  4514.18  4516.51
                             4519.21  4519.33  4523.13  4529.83  4535.44
                             4538.59  4544.45  4544.52  4672.63  4672.64

 Zero-point correction=                           0.186016 (Hartree/Particle)
 Thermal correction to Energy=                    0.197060
 Thermal correction to Enthalpy=                  0.198004
 Thermal correction to Gibbs Free Energy=         0.148891
 Sum of electronic and zero-point Energies=           -388.046138
 Sum of electronic and thermal Energies=              -388.035094
 Sum of electronic and thermal Enthalpies=            -388.034149
 Sum of electronic and thermal Free Energies=         -388.083263

                     E (Thermal)             CV                S
                      KCal/Mol        Cal/Mol-Kelvin    Cal/Mol-Kelvin
 Total                  123.657             40.038            103.368
 Electronic               0.000              0.000              0.000
 Translational            0.889              2.981             40.548
 Rotational               0.889              2.981             29.880
 Vibrational            121.880             34.077             32.941
 Vibration     1          0.594              1.981              5.190
 Vibration     2          0.596              1.975              4.561
 Vibration     3          0.606              1.942              3.284
 Vibration     4          0.615              1.914              2.807
 Vibration     5          0.618              1.903              2.672
 Vibration     6          0.638              1.839              2.125
 Vibration     7          0.664              1.758              1.709
 Vibration     8          0.676              1.722              1.572
 Vibration     9          0.680              1.712              1.538
 Vibration    10          0.692              1.675              1.422
 Vibration    11          0.763              1.478              0.977
 Vibration    12          0.777              1.441              0.915
 Vibration    13          0.847              1.270              0.681
 Vibration    14          0.907              1.137              0.541
 Vibration    15          0.961              1.026              0.445

 Optimization completed.
    -- Stationary point found.
 Normal termination of Gaussian 16 at Thu Nov  9 19:32:33 2023.
