 Gaussian 16, Revision B.01,
 Gaussian 16:  EM64L-G16RevB.01 20-Dec-2017

 ---------------------------
 # B3LYP/6-31G(d,p) OPT FREQ
 ---------------------------

 -----
 8poly
 -----
 Symbolic Z-matrix:
 Charge =  0 Multiplicity = 1

 SCF Done:  E(RB3LYP) =  -620.448049501     A.U. after   13 cycles
 SCF Done:  E(RB3LYP) =  -620.463284281     A.U. after   12 cycles
 SCF Done:  E(RB3LYP) =  -620.464569916     A.U. after   12 cycles
 SCF Done:  E(RB3LYP) =  -620.464636615     A.U. after    9 cycles
 SCF Done:  E(RB3LYP) =  -620.464641200     A.U. after    7 cycles
 SCF Done:  E(RB3LYP) =  -620.464641337     A.U. after    6 cycles
 Optimization completed.
    -- Stationary point found.
 Normal termination of Gaussian 16 at Thu Nov  9 20:13:04 2023.

 ----------------------------------------------------------------------
 #N Geom=AllCheck Guess=TCheck SCRF=Check GenChk RB3LYP/6-31G(d,p) Freq
 ----------------------------------------------------------------------

 Structure from the checkpoint file:  "checkpoint.chk"
 -----
 8poly
 -----
 Charge =  0 Multiplicity = 1

                         Standard orientation:
 ---------------------------------------------------------------------
 Center     Atomic      Atomic             Coordinates (Angstroms)
 Number     Number       Type             X           Y           Z
 ---------------------------------------------------------------------
      1          6           0        9.252669   -0.236515   -0.000004
      2          6           0        8.061725    0.387326   -0.000002
      3          6           0        6.782603   -0.285969   -0.000002
      4          6           0        5.583866    0.352517    0.000000
      5          6           0        4.309755   -0.307688    0.000001
      6          6           0        3.109455    0.336939    0.000002
      7          6           0        1.837003   -0.319083    0.000002
      8          6           0        0.636004    0.327476    0.000003
      9          6           0       -0.636004   -0.327455    0.000003
     10          6           0       -1.837004    0.319103    0.000002
     11          6           0       -3.109453   -0.336923    0.000002
     12          6           0       -4.309756    0.307697    0.000001
     13          6           0       -5.583864   -0.352516    0.000001
     14          6           0       -6.782605    0.285961   -0.000001
     15          6           0       -8.061721   -0.387346   -0.000003
     16          6           0       -9.252672    0.236482   -0.000005
     17          1           0       10.185823    0.316389   -0.000004
     18          1           0        9.325246   -1.320947   -0.000005
     19          1           0        8.035000    1.477061   -0.000001
     20          1           0        6.799005   -1.376060   -0.000003
     21          1           0        5.574255    1.443059    0.000001
     22          1           0        4.316692   -1.397948   -0.000000
     23          1           0        3.104282    1.427381    0.000003
     24          1           0        1.841298   -1.409436    0.000002
     25          1           0        0.632191    1.417875    0.000004
     26          1           0       -0.632190   -1.417853    0.000003
     27          1           0       -1.841301    1.409455    0.000002
     28          1           0       -3.104275   -1.427365    0.000003
     29          1           0       -4.316700    1.397957    0.000000
     30          1           0       -5.574244   -1.443057    0.000002
     31          1           0       -6.799016    1.376052   -0.000002
     32          1           0       -8.034985   -1.477081   -0.000001
     33          1           0       -9.325261    1.320913   -0.000005
     34          1           0      -10.185821   -0.316431   -0.000004
 ---------------------------------------------------------------------

 SCF Done:  E(RB3LYP) =  -620.464641337     A.U. after    1 cycles

 The electronic state is 1-A.
 Alpha  occ. eigenvalues --  -10.19490 -10.19477 -10.19463 -10.19453 -10.19419
 Alpha  occ. eigenvalues --  -10.19411 -10.19402 -10.19391 -10.19377 -10.19376
 Alpha  occ. eigenvalues --  -10.19350 -10.19350 -10.19275 -10.19275 -10.18405
 Alpha  occ. eigenvalues --  -10.18405  -0.83141  -0.82377  -0.81180  -0.79569
 Alpha  occ. eigenvalues --   -0.77558  -0.75174  -0.72476  -0.69654  -0.64715
 Alpha  occ. eigenvalues --   -0.61305  -0.57820  -0.56735  -0.56098  -0.55311
 Alpha  occ. eigenvalues --   -0.54917  -0.54414  -0.48852  -0.48204  -0.47001
 Alpha  occ. eigenvalues --   -0.46249  -0.44144  -0.43970  -0.41560  -0.41074
 Alpha  occ. eigenvalues --   -0.39416  -0.38795  -0.37665  -0.37283  -0.36548
 Alpha  occ. eigenvalues --   -0.35791  -0.35501  -0.35295  -0.34763  -0.34551
 Alpha  occ. eigenvalues --   -0.34525  -0.32973  -0.30861  -0.28200  -0.25014
 Alpha  occ. eigenvalues --   -0.21366  -0.17505
 Alpha virt. eigenvalues --   -0.08246  -0.03967   0.00350   0.04245   0.07379
 Alpha virt. eigenvalues --    0.08512   0.09494   0.09565   0.10556   0.10860
 Alpha virt. eigenvalues --    0.11152   0.12590   0.12669   0.13214   0.14282

 Mulliken charges:
               1
     1  C   -0.256171
     2  C   -0.029696
     3  C   -0.077187
     4  C   -0.075357
     5  C   -0.078647
     6  C   -0.076759
     7  C   -0.078098
     8  C   -0.077647
     9  C   -0.077647
    10  C   -0.078098
    11  C   -0.076759
    12  C   -0.078647
    13  C   -0.075357
    14  C   -0.077187
    15  C   -0.029696
    16  C   -0.256171
    17  H    0.101508
    18  H    0.097229
    19  H    0.081334
    20  H    0.078386
    21  H    0.078297
    22  H    0.078481
    23  H    0.078075
    24  H    0.078176
    25  H    0.078076
    26  H    0.078076
    27  H    0.078176
    28  H    0.078075
    29  H    0.078481
    30  H    0.078297
    31  H    0.078386
    32  H    0.081334
    33  H    0.097229
    34  H    0.101508
 Sum of Mulliken charges =  -0.00000

 Dipole moment (field-independent basis, Debye):
    X=              0.0000    Y=              0.0000    Z=              0.0000  Tot=              0.0000
 Quadrupole moment (field-independent basis, Debye-Ang):
   XX=            -89.4074   YY=            -85.9304   ZZ=           -105.0847
   XY=              0.2876   XZ=             -0.0000   YZ=             -0.0000

  Exact polarizability:1104.953 -59.792 146.504   0.000  -0.000  57.818
 Approx polarizability:1760.076-173.350 237.426   0.000  -0.000  87.854

                      1                      2                      3
                      A                      A                      A
 Frequencies --     16.7649                22.7981                45.6872
 Red. masses --      5.2069                 4.9100                 5.0197
 Frc consts  --      0.0009                 0.0015                 0.0062
 IR Inten    --      0.0238                 0.5919                 0.0000

                      4                      5                      6
                      A                      A                      A
 Frequencies --     62.1657                81.7053                96.1119
 Red. masses --      4.5231                 2.6570                 2.1121
 Frc consts  --      0.0103                 0.0105                 0.0115
 IR Inten    --      0.0000                 0.0006                 0.3093

                      7                      8                      9
                      A                      A                      A
 Frequencies --    118.6061               135.5312               178.8024
 Red. masses --      4.1488                 3.8705                 5.4463
 Frc consts  --      0.0344                 0.0419                 0.1026
 IR Inten    --      2.5149                 0.0000                 0.0000

                     10                     11                     12
                      A                      A                      A
 Frequencies --    181.1410               190.0560               192.5478
 Red. masses --      1.7143                 3.9398                 3.6171
 Frc consts  --      0.0331                 0.0838                 0.0790
 IR Inten    --      0.0000                 0.0000                 0.1134

                     13                     14                     15
                      A                      A                      A
 Frequencies --    248.3655               263.0601               269.2607
 Red. masses --      3.2661                 1.8160                 3.4835
 Frc consts  --      0.1187                 0.0740                 0.1488
 IR Inten    --      0.0000                 0.3500                 6.2824

                     16                     17                     18
                      A                      A                      A
 Frequencies --    295.5437               337.0975               345.5310
 Red. masses --      2.9979                 1.8458                 5.2255
 Frc consts  --      0.1543                 0.1236                 0.3676
 IR Inten    --      0.0884                 0.0000                14.4174

                     19                     20                     21
                      A                      A                      A
 Frequencies --    355.7663               393.8643               433.7213
 Red. masses --      3.2092                 2.2000                 3.2408
 Frc consts  --      0.2393                 0.2011                 0.3592
 IR Inten    --      0.0000                 0.2629                 0.0000

                     22                     23                     24
                      A                      A                      A
 Frequencies --    444.1037               480.8007               525.3431
 Red. masses --      2.9858                 4.0768                 3.1811
 Frc consts  --      0.3470                 0.5553                 0.5173
 IR Inten    --      5.8120                 0.0000                 0.0000

                     25                     26                     27
                      A                      A                      A
 Frequencies --    570.1074               607.1829               622.0788
 Red. masses --      3.2385                 3.3331                 3.1444
 Frc consts  --      0.6202                 0.7240                 0.7169
 IR Inten    --     10.6904                 0.0892                 0.0000

                     28                     29                     30
                      A                      A                      A
 Frequencies --    662.7557               663.5367               839.3503
 Red. masses --      1.3647                 1.3818                 1.4125
 Frc consts  --      0.3532                 0.3584                 0.5863
 IR Inten    --      7.0699                 0.0000                 0.3687

                     31                     32                     33
                      A                      A                      A
 Frequencies --    862.1303               883.8057               900.0865
 Red. masses --      1.6416                 1.8433                 1.9331
 Frc consts  --      0.7189                 0.8483                 0.9227
 IR Inten    --      0.0000                 2.3492                 0.0000

                     34                     35                     36
                      A                      A                      A
 Frequencies --    910.9782               916.6862               919.8797
 Red. masses --      1.8152                 1.5772                 1.5891
 Frc consts  --      0.8876                 0.7809                 0.7923
 IR Inten    --     19.4627                 0.0000                50.5324

                     37                     38                     39
                      A                      A                      A
 Frequencies --    921.7814               934.3240               951.8499
 Red. masses --      1.9684                 1.1588                 1.1433
 Frc consts  --      0.9854                 0.5960                 0.6103
 IR Inten    --      0.0000                 0.0000                 1.9910

                     40                     41                     42
                      A                      A                      A
 Frequencies --    966.6515               967.0614               973.2625
 Red. masses --      1.4950                 1.4920                 1.1232
 Frc consts  --      0.8231                 0.8221                 0.6269
 IR Inten    --      1.7422                 0.0000                 0.0000

                     43                     44                     45
                      A                      A                      A
 Frequencies --    997.2949              1021.3538              1041.9625
 Red. masses --      1.1049                 1.0951                 1.0920
 Frc consts  --      0.6475                 0.6730                 0.6985
 IR Inten    --      1.8369                 0.0000                 1.3828

                     46                     47                     48
                      A                      A                      A
 Frequencies --   1056.1013              1061.4403              1161.7357
 Red. masses --      1.0915                 1.0882                 2.4268
 Frc consts  --      0.7173                 0.7223                 1.9298
 IR Inten    --      0.0000               173.7373                 1.1287

                     49                     50                     51
                      A                      A                      A
 Frequencies --   1166.5083              1173.0447              1190.4513
 Red. masses --      3.7067                 1.7464                 1.6194
 Frc consts  --      2.9717                 1.4159                 1.3522
 IR Inten    --      0.0000                 0.0000                37.2498

                     52                     53                     54
                      A                      A                      A
 Frequencies --   1194.7769              1198.3852              1223.1732
 Red. masses --      2.6530                 1.6940                 2.8177
 Frc consts  --      2.2313                 1.4334                 2.4838
 IR Inten    --      9.2552                 0.0000                 0.0000

                     55                     56                     57
                      A                      A                      A
 Frequencies --   1231.2224              1254.9827              1278.5787
 Red. masses --      1.3823                 1.3162                 1.2637
 Frc consts  --      1.2346                 1.2214                 1.2171
 IR Inten    --     49.8846                 0.0000                12.3924

                     58                     59                     60
                      A                      A                      A
 Frequencies --   1304.0862              1319.7617              1322.3221
 Red. masses --      1.2844                 1.4239                 1.5698
 Frc consts  --      1.2870                 1.4613                 1.6172
 IR Inten    --      0.0000                24.0734                 0.0000

                     61                     62                     63
                      A                      A                      A
 Frequencies --   1322.9436              1326.5263              1327.9797
 Red. masses --      1.8647                 1.4684                 2.1821
 Frc consts  --      1.9228                 1.5224                 2.2673
 IR Inten    --     37.9086                 0.0000                 0.0000

                     64                     65                     66
                      A                      A                      A
 Frequencies --   1331.0132              1335.1615              1336.9963
 Red. masses --      1.3286                 1.3399                 1.2967
 Frc consts  --      1.3868                 1.4073                 1.3657
 IR Inten    --      2.7774                 0.4479                 0.0000

                     67                     68                     69
                      A                      A                      A
 Frequencies --   1352.4067              1400.3459              1463.9832
 Red. masses --      1.3496                 1.5886                 1.3001
 Frc consts  --      1.4544                 1.8355                 1.6417
 IR Inten    --      1.3629                 0.0000                 2.4513

                     70                     71                     72
                      A                      A                      A
 Frequencies --   1469.2930              1603.9282              1608.0417
 Red. masses --      1.3212                 4.6443                 3.3500
 Frc consts  --      1.6806                 7.0395                 5.1038
 IR Inten    --      0.0000                 1.4125                 0.0000

                     73                     74                     75
                      A                      A                      A
 Frequencies --   1640.3335              1666.3117              1670.0794
 Red. masses --      4.3916                 4.2221                 4.4578
 Frc consts  --      6.9620                 6.9070                 7.3256
 IR Inten    --      0.0000                 4.2171                 9.4969

                     76                     77                     78
                      A                      A                      A
 Frequencies --   1689.4715              1697.8026              1702.3504
 Red. masses --      4.7847                 4.3802                 4.5900
 Frc consts  --      8.0465                 7.4390                 7.8373
 IR Inten    --      0.0000                 0.0000                21.2947

                     79                     80                     81
                      A                      A                      A
 Frequencies --   3137.6402              3137.7432              3138.3459
 Red. masses --      1.0885                 1.0883                 1.0886
 Frc consts  --      6.3135                 6.3127                 6.3171
 IR Inten    --      2.2731                 0.0000                 0.0000

                     82                     83                     84
                      A                      A                      A
 Frequencies --   3139.4994              3140.7225              3140.8189
 Red. masses --      1.0887                 1.0878                 1.0904
 Frc consts  --      6.3221                 6.3222                 6.3376
 IR Inten    --      4.3098                 0.0001                21.1330

                     85                     86                     87
                      A                      A                      A
 Frequencies --   3142.1256              3142.2292              3144.6271
 Red. masses --      1.0901                 1.0874                 1.0879
 Frc consts  --      6.3410                 6.3260                 6.3381
 IR Inten    --      0.0000                22.6349                 0.0000

                     88                     89                     90
                      A                      A                      A
 Frequencies --   3147.4471              3150.1422              3152.4226
 Red. masses --      1.0870                 1.0859                 1.0850
 Frc consts  --      6.3446                 6.3488                 6.3527
 IR Inten    --      1.7371                 0.0000                 4.9282

                     91                     92                     93
                      A                      A                      A
 Frequencies --   3154.1552              3155.0230              3158.6969
 Red. masses --      1.0846                 1.0849                 1.0668
 Frc consts  --      6.3578                 6.3630                 6.2714
 IR Inten    --      0.0000               260.6976                25.9406

                     94                     95                     96
                      A                      A                      A
 Frequencies --   3158.7213              3247.8749              3247.8821
 Red. masses --      1.0671                 1.1158                 1.1158
 Frc consts  --      6.2728                 6.9348                 6.9348
 IR Inten    --      0.1012                14.6116                15.2081

 - Thermochemistry -
 -------------------
 Temperature   298.150 Kelvin.  Pressure   1.00000 Atm.
 Atom     1 has atomic number  6 and mass  12.00000

 Molecular mass:   210.14085 amu.
 Principal axes and moments of inertia in atomic units:
                           1         2         3
     Eigenvalues --   186.16983********************
           X            1.00000  -0.00053  -0.00000
           Y            0.00053   1.00000  -0.00000
           Z            0.00000   0.00000   1.00000
 This molecule is an asymmetric top.
 Rotational symmetry number  1.
 Rotational temperatures (Kelvin)      0.46524     0.00348     0.00345
 Rotational constants (GHZ):           9.69406     0.07250     0.07197
 Zero-point vibrational energy     752248.6 (Joules/Mol)
                                  179.79174 (Kcal/Mol)
 Warning -- explicit consideration of  26 degrees of freedom as
           vibrations may cause significant error
 Vibrational temperatures:     24.12    32.80    65.73    89.44   117.56
          (Kelvin)            138.28   170.65   195.00   257.26   260.62
                              273.45   277.03   357.34   378.48   387.41
                              425.22   485.01   497.14   511.87   566.68
                              624.03   638.97   691.77   755.85   820.26
                              873.60   895.03   953.56   954.68  1207.64
                             1240.41  1271.60  1295.02  1310.69  1318.91
                             1323.50  1326.24  1344.28  1369.50  1390.80
                             1391.39  1400.31  1434.88  1469.50  1499.15
                             1519.49  1527.18  1671.48  1678.35  1687.75
                             1712.79  1719.02  1724.21  1759.87  1771.45
                             1805.64  1839.59  1876.29  1898.84  1902.53
                             1903.42  1908.58  1910.67  1915.03  1921.00
                             1923.64  1945.81  2014.79  2106.35  2113.98
                             2307.69  2313.61  2360.07  2397.45  2402.87
                             2430.77  2442.76  2449.30  4514.36  4514.51
                             4515.38  4517.04  4518.80  4518.94  4520.82
                             4520.97  4524.42  4528.47  4532.35  4535.63
                             4538.13  4539.37  4544.66  4544.70  4672.97
                             4672.98

 Zero-point correction=                           0.286516 (Hartree/Particle)
 Thermal correction to Energy=                    0.304127
 Thermal correction to Enthalpy=                  0.305071
 Thermal correction to Gibbs Free Energy=         0.238984
 Sum of electronic and zero-point Energies=           -620.178125
 Sum of electronic and thermal Energies=              -620.160514
 Sum of electronic and thermal Enthalpies=            -620.159570
 Sum of electronic and thermal Free Energies=         -620.225658

                     E (Thermal)             CV                S
                      KCal/Mol        Cal/Mol-Kelvin    Cal/Mol-Kelvin
 Total                  190.843             64.276            139.094
 Electronic               0.000              0.000              0.000
 Translational            0.889              2.981             41.932
 Rotational               0.889              2.981             33.119
 Vibrational            189.065             58.315             64.043
 Vibration     1          0.593              1.986              6.985
 Vibration     2          0.593              1.985              6.374
 Vibration     3          0.595              1.979              4.996
 Vibration     4          0.597              1.972              4.387
 Vibration     5          0.600              1.962              3.849
 Vibration     6          0.603              1.952              3.532
 Vibration     7          0.609              1.934              3.123
 Vibration     8          0.613              1.918              2.866
 Vibration     9          0.629              1.868              2.341
 Vibration    10          0.630              1.865              2.317
 Vibration    11          0.633              1.854              2.227
 Vibration    12          0.635              1.850              2.203
 Vibration    13          0.662              1.765              1.742
 Vibration    14          0.670              1.741              1.641
 Vibration    15          0.674              1.730              1.601
 Vibration    16          0.690              1.682              1.442
 Vibration    17          0.718              1.601              1.226
 Vibration    18          0.724              1.584              1.186
 Vibration    19          0.731              1.563              1.141
 Vibration    20          0.761              1.483              0.985
 Vibration    21          0.794              1.397              0.847
 Vibration    22          0.804              1.374              0.814
 Vibration    23          0.837              1.293              0.708
 Vibration    24          0.880              1.194              0.598
 Vibration    25          0.926              1.096              0.504
 Vibration    26          0.966              1.017              0.437

 Optimization completed.
    -- Stationary point found.
 Normal termination of Gaussian 16 at Thu Nov  9 20:28:48 2023.
