 Gaussian 16, Revision B.01,
 Gaussian 16:  EM64L-G16RevB.01 20-Dec-2017

 ---------------------------
 # B3LYP/6-31G(d,p) OPT FREQ
 ---------------------------

 -------
 Benzeno
 -------
 Symbolic Z-matrix:
 Charge =  0 Multiplicity = 1

 SCF Done:  E(RB3LYP) =  -232.258102812     A.U. after   10 cycles
 SCF Done:  E(RB3LYP) =  -232.258203199     A.U. after    8 cycles
 Optimization completed.
    -- Stationary point found.
 Normal termination of Gaussian 16 at Fri Oct  6 11:44:02 2023.

 ----------------------------------------------------------------------
 #N Geom=AllCheck Guess=TCheck SCRF=Check GenChk RB3LYP/6-31G(d,p) Freq
 ----------------------------------------------------------------------

 Structure from the checkpoint file:  "checkpoint.chk"
 -------
 Benzeno
 -------
 Charge =  0 Multiplicity = 1

                         Standard orientation:
 ---------------------------------------------------------------------
 Center     Atomic      Atomic             Coordinates (Angstroms)
 Number     Number       Type             X           Y           Z
 ---------------------------------------------------------------------
      1          6           0       -0.255412    1.372546    0.000004
      2          6           0        1.060956    0.907465    0.000001
      3          6           0        1.316368   -0.465081   -0.000004
      4          6           0        0.255412   -1.372546    0.000004
      5          6           0       -1.060956   -0.907465    0.000001
      6          6           0       -1.316368    0.465081   -0.000004
      7          1           0       -0.454158    2.440562   -0.000002
      8          1           0       -2.340671    0.826964    0.000000
      9          1           0       -1.886511   -1.613593   -0.000001
     10          1           0        0.454158   -2.440563   -0.000002
     11          1           0        2.340671   -0.826966    0.000000
     12          1           0        1.886512    1.613591   -0.000001
 ---------------------------------------------------------------------

 SCF Done:  E(RB3LYP) =  -232.258203199     A.U. after    1 cycles

 The electronic state is 1-A.
 Alpha  occ. eigenvalues --  -10.18794 -10.18768 -10.18768 -10.18713 -10.18712
 Alpha  occ. eigenvalues --  -10.18686  -0.84682  -0.74006  -0.74005  -0.59738
 Alpha  occ. eigenvalues --   -0.59738  -0.51792  -0.45812  -0.43858  -0.41654
 Alpha  occ. eigenvalues --   -0.41654  -0.36002  -0.33959  -0.33959  -0.24693
 Alpha  occ. eigenvalues --   -0.24693
 Alpha virt. eigenvalues --    0.00269   0.00269   0.09107   0.14508   0.14508
 Alpha virt. eigenvalues --    0.16194   0.18184   0.18184   0.19067   0.30074
 Alpha virt. eigenvalues --    0.30074   0.31826   0.31826   0.46722   0.52699

 Mulliken charges:
               1
     1  C   -0.084434
     2  C   -0.084416
     3  C   -0.084434
     4  C   -0.084434
     5  C   -0.084416
     6  C   -0.084434
     7  H    0.084428
     8  H    0.084428
     9  H    0.084427
    10  H    0.084428
    11  H    0.084428
    12  H    0.084427
 Sum of Mulliken charges =  -0.00000

 Dipole moment (field-independent basis, Debye):
    X=              0.0000    Y=             -0.0000    Z=             -0.0000  Tot=              0.0000
 Quadrupole moment (field-independent basis, Debye-Ang):
   XX=            -31.4743   YY=            -31.4743   ZZ=            -38.5320
   XY=              0.0000   XZ=             -0.0000   YZ=              0.0000

  Exact polarizability:  71.775   0.000  71.775  -0.000   0.000  21.424
 Approx polarizability: 119.407   0.000 119.407   0.000  -0.000  32.012

                      1                      2                      3
                      A                      A                      A
 Frequencies --    414.1954               414.2664               621.1015
 Red. masses --      2.9459                 2.9457                 6.0744
 Frc consts  --      0.2978                 0.2979                 1.3806
 IR Inten    --      0.0000                 0.0000                 0.0000

                      4                      5                      6
                      A                      A                      A
 Frequencies --    621.1129               694.8247               718.2719
 Red. masses --      6.0742                 1.0848                 3.8784
 Frc consts  --      1.3806                 0.3086                 1.1789
 IR Inten    --      0.0000                74.2012                 0.0000

                      7                      8                      9
                      A                      A                      A
 Frequencies --    865.4171               865.4439               974.7219
 Red. masses --      1.2476                 1.2476                 1.3585
 Frc consts  --      0.5505                 0.5506                 0.7605
 IR Inten    --      0.0000                 0.0000                 0.0000

                     10                     11                     12
                      A                      A                      A
 Frequencies --    974.7532              1013.4056              1017.8499
 Red. masses --      1.3585                 1.2229                 6.5565
 Frc consts  --      0.7605                 0.7400                 4.0021
 IR Inten    --      0.0000                 0.0000                 0.0000

                     13                     14                     15
                      A                      A                      A
 Frequencies --   1020.1468              1066.7838              1066.8522
 Red. masses --      6.0140                 1.6858                 1.6856
 Frc consts  --      3.6875                 1.1304                 1.1304
 IR Inten    --      0.0000                 3.3866                 3.3877

                     16                     17                     18
                      A                      A                      A
 Frequencies --   1179.9046              1202.7569              1202.7847
 Red. masses --      1.0799                 1.1342                 1.1341
 Frc consts  --      0.8858                 0.9667                 0.9667
 IR Inten    --      0.0000                 0.0000                 0.0000

                     19                     20                     21
                      A                      A                      A
 Frequencies --   1356.7250              1380.8390              1524.8115
 Red. masses --      6.6863                 1.2476                 2.0357
 Frc consts  --      7.2514                 1.4016                 2.7887
 IR Inten    --      0.0000                 0.0000                 6.6241

                     22                     23                     24
                      A                      A                      A
 Frequencies --   1524.8777              1653.5070              1653.5474
 Red. masses --      2.0360                 5.3960                 5.3961
 Frc consts  --      2.7893                 8.6923                 8.6928
 IR Inten    --      6.6222                 0.0000                 0.0000

                     25                     26                     27
                      A                      A                      A
 Frequencies --   3171.6039              3181.1598              3181.2017
 Red. masses --      1.0834                 1.0876                 1.0876
 Frc consts  --      6.4207                 6.4846                 6.4848
 IR Inten    --      0.0001                 0.0000                 0.0000

                     28                     29                     30
                      A                      A                      A
 Frequencies --   3196.8402              3196.8892              3207.4637
 Red. masses --      1.0953                 1.0953                 1.0998
 Frc consts  --      6.5953                 6.5955                 6.6661
 IR Inten    --     46.6803                46.6667                 0.0000

 - Thermochemistry -
 -------------------
 Temperature   298.150 Kelvin.  Pressure   1.00000 Atm.
 Atom     1 has atomic number  6 and mass  12.00000

 Molecular mass:    78.04695 amu.
 Principal axes and moments of inertia in atomic units:
                           1         2         3
     Eigenvalues --   317.11287 317.11419 634.22706
           X            0.99936   0.03567  -0.00000
           Y           -0.03567   0.99936   0.00000
           Z            0.00000  -0.00000   1.00000
 This molecule is an asymmetric top.
 Rotational symmetry number  1.
 Rotational temperatures (Kelvin)      0.27313     0.27313     0.13657
 Rotational constants (GHZ):           5.69116     5.69114     2.84558
 Zero-point vibrational energy     264159.7 (Joules/Mol)
                                   63.13569 (Kcal/Mol)
 Warning -- explicit consideration of   2 degrees of freedom as
           vibrations may cause significant error
 Vibrational temperatures:    595.93   596.04   893.63   893.64   999.70
          (Kelvin)           1033.43  1245.14  1245.18  1402.41  1402.45
                             1458.06  1464.46  1467.76  1534.86  1534.96
                             1697.62  1730.50  1730.54  1952.02  1986.72
                             2193.86  2193.96  2379.03  2379.09  4563.23
                             4576.98  4577.04  4599.54  4599.61  4614.82

 Zero-point correction=                           0.100613 (Hartree/Particle)
 Thermal correction to Energy=                    0.105002
 Thermal correction to Enthalpy=                  0.105946
 Thermal correction to Gibbs Free Energy=         0.073151
 Sum of electronic and zero-point Energies=           -232.157590
 Sum of electronic and thermal Energies=              -232.153202
 Sum of electronic and thermal Enthalpies=            -232.152257
 Sum of electronic and thermal Free Energies=         -232.185052

                     E (Thermal)             CV                S
                      KCal/Mol        Cal/Mol-Kelvin    Cal/Mol-Kelvin
 Total                   65.890             17.138             69.022
 Electronic               0.000              0.000              0.000
 Translational            0.889              2.981             38.979
 Rotational               0.889              2.981             25.659
 Vibrational             64.112             11.177              4.384
 Vibration     1          0.778              1.439              0.912
 Vibration     2          0.778              1.439              0.912

 Optimization completed.
    -- Stationary point found.
 Normal termination of Gaussian 16 at Fri Oct  6 11:47:40 2023.
