 Gaussian 16, Revision B.01,
 Gaussian 16:  EM64L-G16RevB.01 20-Dec-2017

 ---------------------------------
 # TD=(NStates=1) B3LYP/6-31G(d,p)
 ---------------------------------

 -------
 ABSSPCT
 -------
 Symbolic Z-matrix:
 Charge =  0 Multiplicity = 1

                         Standard orientation:
 ---------------------------------------------------------------------
 Center     Atomic      Atomic             Coordinates (Angstroms)
 Number     Number       Type             X           Y           Z
 ---------------------------------------------------------------------
      1          6           0        1.191172   -0.713198    0.006407
      2          6           0       -0.033835   -1.279223    0.006823
      3          6           0       -1.217339   -0.712906   -0.039285
      4          6           0       -1.226132    0.721545    0.030312
      5          6           0        0.057739    1.382919   -0.000957
      6          6           0        1.227340    0.625855   -0.067960
      7          1           0        2.091123   -1.371745    0.071962
      8          1           0        2.221408    1.063571    0.084200
      9          1           0        0.141598    2.401346    0.108956
     10          1           0       -2.162796    1.257377    0.039428
     11          1           0       -2.254613   -1.182304   -0.057238
     12          1           0       -0.030394   -2.318195    0.140659
 ---------------------------------------------------------------------

 SCF Done:  E(RB3LYP) =  -232.224483887     A.U. after   14 cycles

 Excitation energies and oscillator strengths:

 Excited State   1:      Singlet-A      5.6096 eV  221.02 nm  f=0.0024  <S**2>=0.000
      20 -> 22         0.44260
      20 -> 23        -0.20540
      21 -> 22        -0.28552
      21 -> 23        -0.42415
 This state for optimization and/or second-order correction.
 Total Energy, E(TD-HF/TD-DFT) =  -232.018334036
 Copying the excited state density for this state as the 1-particle RhoCI density.

 The electronic state is 1-A.
 Alpha  occ. eigenvalues --  -10.19377 -10.18786 -10.18548 -10.18174 -10.17938
 Alpha  occ. eigenvalues --  -10.16777  -0.85861  -0.74967  -0.73980  -0.60443
 Alpha  occ. eigenvalues --   -0.59654  -0.52309  -0.45705  -0.44578  -0.41702
 Alpha  occ. eigenvalues --   -0.41212  -0.36839  -0.34871  -0.32059  -0.25315
 Alpha  occ. eigenvalues --   -0.24374
 Alpha virt. eigenvalues --   -0.00158   0.01057   0.08644   0.13356   0.15126
 Alpha virt. eigenvalues --    0.16729   0.18188   0.18490   0.20294   0.28704
 Alpha virt. eigenvalues --    0.30650   0.31684   0.35304   0.45568   0.52278

 Mulliken charges:
               1
     1  C   -0.061784
     2  C   -0.074622
     3  C   -0.072744
     4  C   -0.108173
     5  C   -0.079489
     6  C   -0.096482
     7  H    0.087781
     8  H    0.079220
     9  H    0.081887
    10  H    0.086369
    11  H    0.089702
    12  H    0.068337
 Sum of Mulliken charges =  -0.00000

 Dipole moment (field-independent basis, Debye):
    X=             -0.0312    Y=             -0.0402    Z=              0.2288  Tot=              0.2344
 Quadrupole moment (field-independent basis, Debye-Ang):
   XX=            -30.9923   YY=            -32.3005   ZZ=            -38.2206
   XY=             -0.2916   XZ=              0.3190   YZ=              0.0771

 Normal termination of Gaussian 16 at Fri Nov 10 19:22:24 2023.
