 Gaussian 16, Revision B.01,
 Gaussian 16:  EM64L-G16RevB.01 20-Dec-2017

 ---------------------------------
 # TD=(NStates=1) B3LYP/6-31G(d,p)
 ---------------------------------

 -------
 ABSSPCT
 -------
 Symbolic Z-matrix:
 Charge =  0 Multiplicity = 1

                         Standard orientation:
 ---------------------------------------------------------------------
 Center     Atomic      Atomic             Coordinates (Angstroms)
 Number     Number       Type             X           Y           Z
 ---------------------------------------------------------------------
      1          6           0        1.246563   -0.663619   -0.047263
      2          6           0        1.232041    0.696581    0.093685
      3          6           0       -0.059837    1.413837   -0.026750
      4          6           0       -1.229531    0.673381    0.005894
      5          6           0       -1.272957   -0.773068   -0.008489
      6          6           0        0.027674   -1.365672   -0.029540
      7          1           0        2.091301   -1.287576    0.099149
      8          1           0        0.275973   -2.438749   -0.090454
      9          1           0       -2.110313   -1.211184    0.254743
     10          1           0       -2.094333    1.132171   -0.014516
     11          1           0       -0.046019    2.604591   -0.152822
     12          1           0        2.219672    1.312108   -0.021324
 ---------------------------------------------------------------------

 SCF Done:  E(RB3LYP) =  -232.202610300     A.U. after   13 cycles

 Excitation energies and oscillator strengths:

 Excited State   1:      Singlet-A      5.2352 eV  236.83 nm  f=0.0036  <S**2>=0.000
      20 -> 22         0.48748
      20 -> 23         0.14782
      21 -> 22        -0.23530
      21 -> 23         0.42991
 This state for optimization and/or second-order correction.
 Total Energy, E(TD-HF/TD-DFT) =  -232.010219254
 Copying the excited state density for this state as the 1-particle RhoCI density.

 The electronic state is 1-A.
 Alpha  occ. eigenvalues --  -10.20570 -10.20251 -10.19420 -10.19007 -10.18434
 Alpha  occ. eigenvalues --  -10.18281  -0.83957  -0.74906  -0.72800  -0.60971
 Alpha  occ. eigenvalues --   -0.59035  -0.51505  -0.46691  -0.43213  -0.42506
 Alpha  occ. eigenvalues --   -0.40562  -0.35506  -0.34010  -0.32894  -0.25103
 Alpha  occ. eigenvalues --   -0.23941
 Alpha virt. eigenvalues --   -0.01615   0.00333   0.08467   0.12573   0.14275
 Alpha virt. eigenvalues --    0.15029   0.16503   0.19445   0.19803   0.27135
 Alpha virt. eigenvalues --    0.28225   0.31466   0.32271   0.46350   0.47901

 Mulliken charges:
               1
     1  C   -0.066378
     2  C   -0.100121
     3  C   -0.089557
     4  C   -0.078371
     5  C   -0.071950
     6  C   -0.093652
     7  H    0.090112
     8  H    0.077127
     9  H    0.089770
    10  H    0.076900
    11  H    0.085434
    12  H    0.080685
 Sum of Mulliken charges =  -0.00000

 Dipole moment (field-independent basis, Debye):
    X=             -0.0754    Y=             -0.0510    Z=              0.0867  Tot=              0.1257
 Quadrupole moment (field-independent basis, Debye-Ang):
   XX=            -31.3044   YY=            -31.9165   ZZ=            -38.6153
   XY=             -0.3842   XZ=             -0.3793   YZ=             -0.6034

 Normal termination of Gaussian 16 at Fri Nov 10 18:07:38 2023.
