 Gaussian 16, Revision B.01,
 Gaussian 16:  EM64L-G16RevB.01 20-Dec-2017

 ---------------------------------
 # TD=(NStates=1) B3LYP/6-31G(d,p)
 ---------------------------------

 -------
 ABSSPCT
 -------
 Symbolic Z-matrix:
 Charge =  0 Multiplicity = 1

                         Standard orientation:
 ---------------------------------------------------------------------
 Center     Atomic      Atomic             Coordinates (Angstroms)
 Number     Number       Type             X           Y           Z
 ---------------------------------------------------------------------
      1          6           0        0.909202   -1.129821   -0.035315
      2          6           0       -0.538822   -1.275666   -0.063853
      3          6           0       -1.464114   -0.167029    0.031412
      4          6           0       -0.829433    1.085636    0.012007
      5          6           0        0.504232    1.285978    0.042572
      6          6           0        1.376866    0.178679    0.042140
      7          1           0        1.566686   -1.995365   -0.062586
      8          1           0        2.467816    0.331867    0.013049
      9          1           0        1.069057    2.287533   -0.206326
     10          1           0       -1.307441    1.992611   -0.106683
     11          1           0       -2.548235   -0.388232   -0.115823
     12          1           0       -0.995474   -2.095080    0.304591
 ---------------------------------------------------------------------

 SCF Done:  E(RB3LYP) =  -232.211623586     A.U. after   13 cycles

 Excitation energies and oscillator strengths:

 Excited State   1:      Singlet-A      5.2258 eV  237.25 nm  f=0.0000  <S**2>=0.000
      20 -> 22         0.49146
      21 -> 23         0.50652
 This state for optimization and/or second-order correction.
 Total Energy, E(TD-HF/TD-DFT) =  -232.019579512
 Copying the excited state density for this state as the 1-particle RhoCI density.

 The electronic state is 1-A.
 Alpha  occ. eigenvalues --  -10.19892 -10.19591 -10.19300 -10.19010 -10.18662
 Alpha  occ. eigenvalues --  -10.18175  -0.84417  -0.74280  -0.73666  -0.60188
 Alpha  occ. eigenvalues --   -0.59443  -0.51514  -0.46280  -0.43758  -0.42242
 Alpha  occ. eigenvalues --   -0.40362  -0.35603  -0.34281  -0.32659  -0.25009
 Alpha  occ. eigenvalues --   -0.23911
 Alpha virt. eigenvalues --   -0.01251  -0.00065   0.08267   0.13743   0.14195
 Alpha virt. eigenvalues --    0.14926   0.17663   0.18484   0.19291   0.26703
 Alpha virt. eigenvalues --    0.30031   0.30908   0.33021   0.45181   0.49332

 Mulliken charges:
               1
     1  C   -0.082036
     2  C   -0.108770
     3  C   -0.101778
     4  C   -0.070971
     5  C   -0.082561
     6  C   -0.083782
     7  H    0.093642
     8  H    0.079480
     9  H    0.088171
    10  H    0.077483
    11  H    0.100440
    12  H    0.090684
 Sum of Mulliken charges =  -0.00000

 Dipole moment (field-independent basis, Debye):
    X=              0.0768    Y=              0.0211    Z=             -0.0944  Tot=              0.1235
 Quadrupole moment (field-independent basis, Debye-Ang):
   XX=            -31.2771   YY=            -32.1967   ZZ=            -38.4615
   XY=              0.2151   XZ=             -0.1692   YZ=             -0.9519

 Normal termination of Gaussian 16 at Fri Nov 10 16:07:29 2023.
