 Gaussian 16, Revision B.01,
 Gaussian 16:  EM64L-G16RevB.01 20-Dec-2017

 ---------------------------------
 # TD=(NStates=1) B3LYP/6-31G(d,p)
 ---------------------------------

 -------
 ABSSPCT
 -------
 Symbolic Z-matrix:
 Charge =  0 Multiplicity = 1

                         Standard orientation:
 ---------------------------------------------------------------------
 Center     Atomic      Atomic             Coordinates (Angstroms)
 Number     Number       Type             X           Y           Z
 ---------------------------------------------------------------------
      1          6           0       -1.113105    0.863232    0.057517
      2          6           0        0.254362    1.370071    0.005738
      3          6           0        1.332760    0.515583   -0.011586
      4          6           0        1.139938   -0.900795    0.038619
      5          6           0       -0.241595   -1.346169   -0.040075
      6          6           0       -1.368234   -0.509131   -0.054547
      7          1           0       -1.862382    1.602027   -0.055802
      8          1           0       -2.524765   -0.795468    0.171398
      9          1           0       -0.255163   -2.394319    0.025550
     10          1           0        1.880897   -1.562362   -0.034302
     11          1           0        2.191574    0.694626    0.086187
     12          1           0        0.545083    2.498749   -0.167028
 ---------------------------------------------------------------------

 SCF Done:  E(RB3LYP) =  -232.168632647     A.U. after   13 cycles

 Excitation energies and oscillator strengths:

 Excited State   1:      Singlet-A      5.2124 eV  237.86 nm  f=0.0031  <S**2>=0.000
      20 -> 22        -0.43306
      20 -> 23        -0.16934
      21 -> 22        -0.25882
      21 -> 23         0.46519
 This state for optimization and/or second-order correction.
 Total Energy, E(TD-HF/TD-DFT) =  -231.977080570
 Copying the excited state density for this state as the 1-particle RhoCI density.

 The electronic state is 1-A.
 Alpha  occ. eigenvalues --  -10.20657 -10.20021 -10.19412 -10.19119 -10.18546
 Alpha  occ. eigenvalues --  -10.16931  -0.83927  -0.75108  -0.73024  -0.60539
 Alpha  occ. eigenvalues --   -0.60353  -0.51844  -0.47611  -0.44128  -0.41508
 Alpha  occ. eigenvalues --   -0.39978  -0.36242  -0.34652  -0.31878  -0.25254
 Alpha  occ. eigenvalues --   -0.23726
 Alpha virt. eigenvalues --   -0.01275  -0.00148   0.08567   0.12177   0.14641
 Alpha virt. eigenvalues --    0.15610   0.17383   0.17851   0.21660   0.27825
 Alpha virt. eigenvalues --    0.28905   0.30137   0.32246   0.46119   0.48817

 Mulliken charges:
               1
     1  C   -0.093645
     2  C   -0.098460
     3  C   -0.008888
     4  C   -0.090215
     5  C   -0.095937
     6  C   -0.082865
     7  H    0.091326
     8  H    0.089999
     9  H    0.079726
    10  H    0.083175
    11  H    0.045265
    12  H    0.080519
 Sum of Mulliken charges =  -0.00000

 Dipole moment (field-independent basis, Debye):
    X=              0.2417    Y=             -0.0540    Z=              0.0162  Tot=              0.2482
 Quadrupole moment (field-independent basis, Debye-Ang):
   XX=            -30.9164   YY=            -32.1031   ZZ=            -38.5371
   XY=             -0.6884   XZ=             -0.2579   YZ=             -0.4806

 Normal termination of Gaussian 16 at Fri Nov 10 17:45:33 2023.
