 Gaussian 16, Revision B.01,
 Gaussian 16:  EM64L-G16RevB.01 20-Dec-2017

 ---------------------------------
 # TD=(NStates=1) B3LYP/6-31G(d,p)
 ---------------------------------

 -------
 ABSSPCT
 -------
 Symbolic Z-matrix:
 Charge =  0 Multiplicity = 1

                         Standard orientation:
 ---------------------------------------------------------------------
 Center     Atomic      Atomic             Coordinates (Angstroms)
 Number     Number       Type             X           Y           Z
 ---------------------------------------------------------------------
      1          6           0       -1.034314   -0.982675    0.045151
      2          6           0        0.287810   -1.285830    0.029260
      3          6           0        1.368672   -0.411713   -0.026773
      4          6           0        1.009797    0.935402    0.057101
      5          6           0       -0.302475    1.357072   -0.028441
      6          6           0       -1.305474    0.399182   -0.147547
      7          1           0       -1.783566   -1.867859    0.200186
      8          1           0       -2.403373    0.869802    0.145941
      9          1           0       -0.761876    2.441733    0.216811
     10          1           0        1.953668    1.610761    0.083422
     11          1           0        2.324777   -0.811053   -0.154893
     12          1           0        0.526279   -2.312024   -0.063969
 ---------------------------------------------------------------------

 SCF Done:  E(RB3LYP) =  -232.202426728     A.U. after   13 cycles

 Excitation energies and oscillator strengths:

 Excited State   1:      Singlet-A      5.3973 eV  229.72 nm  f=0.0048  <S**2>=0.000
      20 -> 22         0.55318
      21 -> 22         0.10566
      21 -> 23        -0.42046
 This state for optimization and/or second-order correction.
 Total Energy, E(TD-HF/TD-DFT) =  -232.004080773
 Copying the excited state density for this state as the 1-particle RhoCI density.

 The electronic state is 1-A.
 Alpha  occ. eigenvalues --  -10.20413 -10.20204 -10.19855 -10.19821 -10.18677
 Alpha  occ. eigenvalues --  -10.17834  -0.85508  -0.74442  -0.74080  -0.59984
 Alpha  occ. eigenvalues --   -0.58757  -0.51293  -0.44826  -0.43846  -0.41726
 Alpha  occ. eigenvalues --   -0.40743  -0.36178  -0.33402  -0.32376  -0.25009
 Alpha  occ. eigenvalues --   -0.24873
 Alpha virt. eigenvalues --   -0.01210   0.00515   0.06122   0.11923   0.12694
 Alpha virt. eigenvalues --    0.14385   0.16286   0.17646   0.20132   0.27885
 Alpha virt. eigenvalues --    0.29434   0.32346   0.34252   0.45059   0.50025

 Mulliken charges:
               1
     1  C   -0.074825
     2  C   -0.081068
     3  C   -0.056683
     4  C   -0.100662
     5  C   -0.074420
     6  C   -0.107238
     7  H    0.094576
     8  H    0.066167
     9  H    0.092391
    10  H    0.076141
    11  H    0.093776
    12  H    0.071846
 Sum of Mulliken charges =  -0.00000

 Dipole moment (field-independent basis, Debye):
    X=              0.2253    Y=             -0.2846    Z=              0.2364  Tot=              0.4331
 Quadrupole moment (field-independent basis, Debye-Ang):
   XX=            -32.0409   YY=            -32.2039   ZZ=            -38.5942
   XY=             -0.4510   XZ=             -0.9791   YZ=              0.5783

 Normal termination of Gaussian 16 at Fri Nov 10 17:47:16 2023.
