 Gaussian 16, Revision B.01,
 Gaussian 16:  EM64L-G16RevB.01 20-Dec-2017

 ---------------------------------
 # TD=(NStates=1) B3LYP/6-31G(d,p)
 ---------------------------------

 -------
 ABSSPCT
 -------
 Symbolic Z-matrix:
 Charge =  0 Multiplicity = 1

                         Standard orientation:
 ---------------------------------------------------------------------
 Center     Atomic      Atomic             Coordinates (Angstroms)
 Number     Number       Type             X           Y           Z
 ---------------------------------------------------------------------
      1          6           0        0.545586    1.194697   -0.007672
      2          6           0        1.400245    0.216216   -0.038009
      3          6           0        0.933827   -1.069593   -0.004815
      4          6           0       -0.508691   -1.257118   -0.070132
      5          6           0       -1.412140   -0.207451   -0.018558
      6          6           0       -0.953564    1.064898    0.022533
      7          1           0        0.966798    2.250903    0.030666
      8          1           0       -1.373346    1.993239    0.018208
      9          1           0       -2.578828   -0.276427    0.156479
     10          1           0       -1.248851   -2.171856    0.140037
     11          1           0        1.702572   -1.898591    0.230123
     12          1           0        2.500075    0.452836    0.124409
 ---------------------------------------------------------------------

 SCF Done:  E(RB3LYP) =  -232.187167774     A.U. after   14 cycles

 Excitation energies and oscillator strengths:

 Excited State   1:      Singlet-A      5.5203 eV  224.60 nm  f=0.0073  <S**2>=0.000
      20 -> 22        -0.47477
      21 -> 22        -0.20107
      21 -> 23         0.47796
 This state for optimization and/or second-order correction.
 Total Energy, E(TD-HF/TD-DFT) =  -231.984299273
 Copying the excited state density for this state as the 1-particle RhoCI density.

 The electronic state is 1-A.
 Alpha  occ. eigenvalues --  -10.20704 -10.20565 -10.19645 -10.18691 -10.18643
 Alpha  occ. eigenvalues --  -10.18324  -0.85351  -0.76079  -0.72428  -0.61301
 Alpha  occ. eigenvalues --   -0.57812  -0.51382  -0.45823  -0.43648  -0.42379
 Alpha  occ. eigenvalues --   -0.38859  -0.36381  -0.34111  -0.31526  -0.26641
 Alpha  occ. eigenvalues --   -0.23408
 Alpha virt. eigenvalues --   -0.01694   0.01563   0.06700   0.11291   0.13168
 Alpha virt. eigenvalues --    0.13815   0.16463   0.17724   0.19499   0.26872
 Alpha virt. eigenvalues --    0.30178   0.30314   0.34466   0.45896   0.51371

 Mulliken charges:
               1
     1  C   -0.106323
     2  C   -0.049908
     3  C   -0.112495
     4  C   -0.096601
     5  C   -0.095730
     6  C   -0.048162
     7  H    0.069914
     8  H    0.085734
     9  H    0.086251
    10  H    0.085754
    11  H    0.093849
    12  H    0.087717
 Sum of Mulliken charges =  -0.00000

 Dipole moment (field-independent basis, Debye):
    X=              0.0309    Y=              0.3030    Z=              0.4128  Tot=              0.5130
 Quadrupole moment (field-independent basis, Debye-Ang):
   XX=            -31.0809   YY=            -32.9422   ZZ=            -38.6270
   XY=             -0.1904   XZ=              0.0933   YZ=             -0.5038

 Normal termination of Gaussian 16 at Fri Nov 10 18:18:39 2023.
