 Gaussian 16, Revision B.01,
 Gaussian 16:  EM64L-G16RevB.01 20-Dec-2017

 ---------------------------------
 # TD=(NStates=1) B3LYP/6-31G(d,p)
 ---------------------------------

 -------
 ABSSPCT
 -------
 Symbolic Z-matrix:
 Charge =  0 Multiplicity = 1

                         Standard orientation:
 ---------------------------------------------------------------------
 Center     Atomic      Atomic             Coordinates (Angstroms)
 Number     Number       Type             X           Y           Z
 ---------------------------------------------------------------------
      1          6           0        1.405705   -0.344900    0.032759
      2          6           0        0.306156   -1.315689   -0.042011
      3          6           0       -1.047467   -1.002000   -0.050255
      4          6           0       -1.368234    0.368838    0.031938
      5          6           0       -0.342808    1.314362   -0.067891
      6          6           0        1.022909    0.968746   -0.012346
      7          1           0        2.390281   -0.785886    0.066581
      8          1           0        1.767118    1.771613    0.010705
      9          1           0       -0.644478    2.363458    0.236759
     10          1           0       -2.520489    0.795790    0.033817
     11          1           0       -1.658684   -1.779762    0.202103
     12          1           0        0.808683   -2.301352    0.096866
 ---------------------------------------------------------------------

 SCF Done:  E(RB3LYP) =  -232.216695384     A.U. after   13 cycles

 Excitation energies and oscillator strengths:

 Excited State   1:      Singlet-A      5.3430 eV  232.05 nm  f=0.0014  <S**2>=0.000
      20 -> 22         0.46195
      21 -> 22         0.12785
      21 -> 23         0.51167
 This state for optimization and/or second-order correction.
 Total Energy, E(TD-HF/TD-DFT) =  -232.020344405
 Copying the excited state density for this state as the 1-particle RhoCI density.

 The electronic state is 1-A.
 Alpha  occ. eigenvalues --  -10.20749 -10.19462 -10.19277 -10.19232 -10.19157
 Alpha  occ. eigenvalues --  -10.18852  -0.84498  -0.74700  -0.73180  -0.60383
 Alpha  occ. eigenvalues --   -0.58697  -0.51433  -0.45579  -0.44109  -0.42540
 Alpha  occ. eigenvalues --   -0.39434  -0.36178  -0.33750  -0.32485  -0.25398
 Alpha  occ. eigenvalues --   -0.24143
 Alpha virt. eigenvalues --   -0.00783  -0.00250   0.07539   0.12372   0.13823
 Alpha virt. eigenvalues --    0.14647   0.17372   0.17760   0.19471   0.26388
 Alpha virt. eigenvalues --    0.30014   0.30692   0.33037   0.46631   0.49572

 Mulliken charges:
               1
     1  C   -0.076659
     2  C   -0.098331
     3  C   -0.075880
     4  C   -0.095534
     5  C   -0.087620
     6  C   -0.083508
     7  H    0.092614
     8  H    0.085019
     9  H    0.085158
    10  H    0.080002
    11  H    0.094552
    12  H    0.080187
 Sum of Mulliken charges =  -0.00000

 Dipole moment (field-independent basis, Debye):
    X=              0.2088    Y=             -0.1166    Z=              0.4013  Tot=              0.4672
 Quadrupole moment (field-independent basis, Debye-Ang):
   XX=            -31.5185   YY=            -32.2075   ZZ=            -38.6532
   XY=             -0.4425   XZ=             -0.2552   YZ=             -0.0559

 Normal termination of Gaussian 16 at Fri Nov 10 18:41:21 2023.
