 Gaussian 16, Revision B.01,
 Gaussian 16:  EM64L-G16RevB.01 20-Dec-2017

 ---------------------------------
 # TD=(NStates=1) B3LYP/6-31G(d,p)
 ---------------------------------

 -------
 ABSSPCT
 -------
 Symbolic Z-matrix:
 Charge =  0 Multiplicity = 1

                         Standard orientation:
 ---------------------------------------------------------------------
 Center     Atomic      Atomic             Coordinates (Angstroms)
 Number     Number       Type             X           Y           Z
 ---------------------------------------------------------------------
      1          6           0       -0.011334    1.394730    0.059069
      2          6           0        1.242122    0.635757   -0.018419
      3          6           0        1.210543   -0.784348   -0.052343
      4          6           0       -0.138021   -1.328925    0.024266
      5          6           0       -1.160137   -0.623380   -0.011590
      6          6           0       -1.154559    0.772177   -0.126523
      7          1           0        0.142772    2.517687    0.148238
      8          1           0       -2.059005    1.087113    0.197724
      9          1           0       -2.145538   -1.301769    0.079701
     10          1           0       -0.224985   -2.392139    0.242659
     11          1           0        2.102342   -1.344838   -0.031004
     12          1           0        2.252731    1.037878    0.115921
 ---------------------------------------------------------------------

 SCF Done:  E(RB3LYP) =  -232.186086676     A.U. after   13 cycles

 Excitation energies and oscillator strengths:

 Excited State   1:      Singlet-A      5.5982 eV  221.47 nm  f=0.0091  <S**2>=0.000
      20 -> 22         0.50211
      20 -> 23         0.15947
      21 -> 22         0.26946
      21 -> 23        -0.38645
 This state for optimization and/or second-order correction.
 Total Energy, E(TD-HF/TD-DFT) =  -231.980358254
 Copying the excited state density for this state as the 1-particle RhoCI density.

 The electronic state is 1-A.
 Alpha  occ. eigenvalues --  -10.19717 -10.19558 -10.19265 -10.17824 -10.17396
 Alpha  occ. eigenvalues --  -10.17234  -0.86041  -0.75241  -0.74147  -0.61134
 Alpha  occ. eigenvalues --   -0.58528  -0.52107  -0.45977  -0.44433  -0.41912
 Alpha  occ. eigenvalues --   -0.40482  -0.36975  -0.34043  -0.31626  -0.25629
 Alpha  occ. eigenvalues --   -0.24629
 Alpha virt. eigenvalues --   -0.01114   0.01484   0.07774   0.12932   0.14649
 Alpha virt. eigenvalues --    0.15728   0.17178   0.18681   0.20044   0.28280
 Alpha virt. eigenvalues --    0.29581   0.30361   0.35854   0.45902   0.47836

 Mulliken charges:
               1
     1  C   -0.084828
     2  C   -0.104647
     3  C   -0.089276
     4  C   -0.051810
     5  C   -0.089036
     6  C   -0.080509
     7  H    0.087098
     8  H    0.093869
     9  H    0.068486
    10  H    0.073648
    11  H    0.091711
    12  H    0.085296
 Sum of Mulliken charges =  -0.00000

 Dipole moment (field-independent basis, Debye):
    X=              0.2333    Y=             -0.1448    Z=              0.4412  Tot=              0.5196
 Quadrupole moment (field-independent basis, Debye-Ang):
   XX=            -31.6675   YY=            -32.2355   ZZ=            -38.1527
   XY=              0.0447   XZ=             -0.3162   YZ=              0.1225

 Normal termination of Gaussian 16 at Fri Nov 10 19:12:04 2023.
