 Gaussian 16, Revision B.01,
 Gaussian 16:  EM64L-G16RevB.01 20-Dec-2017

 ---------------------------------
 # TD=(NStates=1) B3LYP/6-31G(d,p)
 ---------------------------------

 -------
 ABSSPCT
 -------
 Symbolic Z-matrix:
 Charge =  0 Multiplicity = 1

                         Standard orientation:
 ---------------------------------------------------------------------
 Center     Atomic      Atomic             Coordinates (Angstroms)
 Number     Number       Type             X           Y           Z
 ---------------------------------------------------------------------
      1          6           0        0.897382    1.054830    0.025518
      2          6           0        1.484755   -0.180016   -0.059177
      3          6           0        0.487253   -1.246705   -0.002798
      4          6           0       -0.909365   -1.085911   -0.002327
      5          6           0       -1.395991    0.153702   -0.079898
      6          6           0       -0.535748    1.341903    0.069978
      7          1           0        1.506659    1.805476   -0.032948
      8          1           0       -1.035791    2.315937    0.092134
      9          1           0       -2.410377    0.294359   -0.163025
     10          1           0       -1.460735   -1.858573    0.243412
     11          1           0        0.761816   -2.221048    0.192279
     12          1           0        2.468712   -0.562977   -0.039621
 ---------------------------------------------------------------------

 SCF Done:  E(RB3LYP) =  -232.193072258     A.U. after   14 cycles

 Excitation energies and oscillator strengths:

 Excited State   1:      Singlet-A      5.2128 eV  237.85 nm  f=0.0022  <S**2>=0.000
      20 -> 22         0.48893
      21 -> 22         0.15925
      21 -> 23         0.47919
 This state for optimization and/or second-order correction.
 Total Energy, E(TD-HF/TD-DFT) =  -232.001505859
 Copying the excited state density for this state as the 1-particle RhoCI density.

 The electronic state is 1-A.
 Alpha  occ. eigenvalues --  -10.20104 -10.19067 -10.18411 -10.18107 -10.18105
 Alpha  occ. eigenvalues --  -10.16799  -0.84038  -0.75595  -0.72537  -0.60705
 Alpha  occ. eigenvalues --   -0.60267  -0.52463  -0.47940  -0.44498  -0.42588
 Alpha  occ. eigenvalues --   -0.40539  -0.35880  -0.34191  -0.32756  -0.25222
 Alpha  occ. eigenvalues --   -0.22998
 Alpha virt. eigenvalues --   -0.01413   0.00804   0.10562   0.14321   0.15264
 Alpha virt. eigenvalues --    0.15847   0.18133   0.18710   0.21797   0.27312
 Alpha virt. eigenvalues --    0.27565   0.32797   0.33276   0.45113   0.47428

 Mulliken charges:
               1
     1  C   -0.098456
     2  C   -0.060300
     3  C   -0.108631
     4  C   -0.041775
     5  C   -0.091060
     6  C   -0.090552
     7  H    0.073489
     8  H    0.095526
     9  H    0.075117
    10  H    0.078418
    11  H    0.070161
    12  H    0.098063
 Sum of Mulliken charges =  -0.00000

 Dipole moment (field-independent basis, Debye):
    X=             -0.0402    Y=             -0.1024    Z=              0.1811  Tot=              0.2119
 Quadrupole moment (field-independent basis, Debye-Ang):
   XX=            -30.9649   YY=            -31.5980   ZZ=            -38.2473
   XY=             -0.4270   XZ=             -0.0922   YZ=             -0.6184

 Normal termination of Gaussian 16 at Fri Nov 10 16:52:35 2023.
