 Gaussian 16, Revision B.01,
 Gaussian 16:  EM64L-G16RevB.01 20-Dec-2017

 ---------------------------------
 # TD=(NStates=1) B3LYP/6-31G(d,p)
 ---------------------------------

 -------
 ABSSPCT
 -------
 Symbolic Z-matrix:
 Charge =  0 Multiplicity = 1

                         Standard orientation:
 ---------------------------------------------------------------------
 Center     Atomic      Atomic             Coordinates (Angstroms)
 Number     Number       Type             X           Y           Z
 ---------------------------------------------------------------------
      1          6           0        1.048109    0.997334    0.042351
      2          6           0        1.380856   -0.353626   -0.002281
      3          6           0        0.351089   -1.331180   -0.051629
      4          6           0       -1.013171   -0.961512    0.048037
      5          6           0       -1.404569    0.372979   -0.069353
      6          6           0       -0.315127    1.298745   -0.110597
      7          1           0        1.804427    1.839445    0.342600
      8          1           0       -0.715232    2.343536    0.182759
      9          1           0       -2.605798    0.622312    0.071218
     10          1           0       -1.935675   -1.673701    0.374638
     11          1           0        0.729795   -2.296929   -0.030587
     12          1           0        2.439357   -0.971109   -0.079788
 ---------------------------------------------------------------------

 SCF Done:  E(RB3LYP) =  -232.188657224     A.U. after   13 cycles

 Excitation energies and oscillator strengths:

 Excited State   1:      Singlet-A      5.2671 eV  235.39 nm  f=0.0006  <S**2>=0.000
      20 -> 22         0.46177
      20 -> 23        -0.12208
      21 -> 22         0.17011
      21 -> 23         0.49227
 This state for optimization and/or second-order correction.
 Total Energy, E(TD-HF/TD-DFT) =  -231.995094112
 Copying the excited state density for this state as the 1-particle RhoCI density.

 The electronic state is 1-A.
 Alpha  occ. eigenvalues --  -10.20953 -10.20819 -10.20673 -10.20455 -10.20263
 Alpha  occ. eigenvalues --  -10.19028  -0.84522  -0.74033  -0.73321  -0.59684
 Alpha  occ. eigenvalues --   -0.58090  -0.50462  -0.44247  -0.43553  -0.41170
 Alpha  occ. eigenvalues --   -0.39969  -0.36311  -0.33236  -0.32117  -0.25188
 Alpha  occ. eigenvalues --   -0.24293
 Alpha virt. eigenvalues --   -0.01056  -0.00437   0.05592   0.09483   0.11404
 Alpha virt. eigenvalues --    0.13705   0.15066   0.17523   0.18694   0.27198
 Alpha virt. eigenvalues --    0.28553   0.31298   0.32850   0.45901   0.50337

 Mulliken charges:
               1
     1  C   -0.094234
     2  C   -0.083882
     3  C   -0.077650
     4  C   -0.074789
     5  C   -0.085430
     6  C   -0.102762
     7  H    0.098024
     8  H    0.080395
     9  H    0.094554
    10  H    0.076023
    11  H    0.087219
    12  H    0.082534
 Sum of Mulliken charges =  -0.00000

 Dipole moment (field-independent basis, Debye):
    X=             -0.0680    Y=             -0.1202    Z=              0.4955  Tot=              0.5144
 Quadrupole moment (field-independent basis, Debye-Ang):
   XX=            -31.4531   YY=            -32.8123   ZZ=            -38.9406
   XY=             -0.6219   XZ=             -0.4543   YZ=              0.6092

 Normal termination of Gaussian 16 at Fri Nov 10 19:18:32 2023.
