 Gaussian 16, Revision B.01,
 Gaussian 16:  EM64L-G16RevB.01 20-Dec-2017

 ---------------------------------
 # TD=(NStates=1) B3LYP/6-31G(d,p)
 ---------------------------------

 -------
 ABSSPCT
 -------
 Symbolic Z-matrix:
 Charge =  0 Multiplicity = 1

                         Standard orientation:
 ---------------------------------------------------------------------
 Center     Atomic      Atomic             Coordinates (Angstroms)
 Number     Number       Type             X           Y           Z
 ---------------------------------------------------------------------
      1          6           0        1.444448   -0.020064   -0.055695
      2          6           0        0.707956    1.200700   -0.016168
      3          6           0       -0.705136    1.181468    0.026040
      4          6           0       -1.472848   -0.070021   -0.072397
      5          6           0       -0.710421   -1.147636   -0.030797
      6          6           0        0.675257   -1.165998    0.052213
      7          1           0        2.518725   -0.161743    0.065229
      8          1           0        1.380410   -2.061457    0.053470
      9          1           0       -1.217750   -1.988981    0.152173
     10          1           0       -2.446022   -0.019691    0.098617
     11          1           0       -1.049896    2.276166    0.171292
     12          1           0        1.178997    2.085005    0.040042
 ---------------------------------------------------------------------

 SCF Done:  E(RB3LYP) =  -232.201462917     A.U. after   13 cycles

 Excitation energies and oscillator strengths:

 Excited State   1:      Singlet-A      5.3992 eV  229.64 nm  f=0.0087  <S**2>=0.000
      20 -> 22         0.32975
      20 -> 23         0.27906
      21 -> 22         0.44518
      21 -> 23        -0.33883
 This state for optimization and/or second-order correction.
 Total Energy, E(TD-HF/TD-DFT) =  -232.003046524
 Copying the excited state density for this state as the 1-particle RhoCI density.

 The electronic state is 1-A.
 Alpha  occ. eigenvalues --  -10.19923 -10.18855 -10.18747 -10.18389 -10.18163
 Alpha  occ. eigenvalues --  -10.17426  -0.84952  -0.75567  -0.73224  -0.60937
 Alpha  occ. eigenvalues --   -0.59382  -0.52478  -0.47163  -0.44105  -0.43080
 Alpha  occ. eigenvalues --   -0.39539  -0.36075  -0.34642  -0.32384  -0.25459
 Alpha  occ. eigenvalues --   -0.23909
 Alpha virt. eigenvalues --   -0.00749   0.00598   0.09032   0.13043   0.15060
 Alpha virt. eigenvalues --    0.15942   0.17913   0.19518   0.20271   0.27828
 Alpha virt. eigenvalues --    0.29691   0.31339   0.32948   0.46422   0.50802

 Mulliken charges:
               1
     1  C   -0.083169
     2  C   -0.075306
     3  C   -0.110133
     4  C   -0.066692
     5  C   -0.073957
     6  C   -0.082134
     7  H    0.089021
     8  H    0.077868
     9  H    0.078241
    10  H    0.089268
    11  H    0.079173
    12  H    0.077821
 Sum of Mulliken charges =  -0.00000

 Dipole moment (field-independent basis, Debye):
    X=              0.0391    Y=              0.0129    Z=              0.3437  Tot=              0.3462
 Quadrupole moment (field-independent basis, Debye-Ang):
   XX=            -30.9473   YY=            -32.3023   ZZ=            -38.3064
   XY=              0.0918   XZ=             -0.2923   YZ=              0.0480

 Normal termination of Gaussian 16 at Fri Nov 10 16:54:59 2023.
