 Gaussian 16, Revision B.01,
 Gaussian 16:  EM64L-G16RevB.01 20-Dec-2017

 ---------------------------------
 # TD=(NStates=1) B3LYP/6-31G(d,p)
 ---------------------------------

 -------
 ABSSPCT
 -------
 Symbolic Z-matrix:
 Charge =  0 Multiplicity = 1

                         Standard orientation:
 ---------------------------------------------------------------------
 Center     Atomic      Atomic             Coordinates (Angstroms)
 Number     Number       Type             X           Y           Z
 ---------------------------------------------------------------------
      1          6           0       -1.358065    0.060023   -0.060396
      2          6           0       -0.619872    1.222097    0.054531
      3          6           0        0.730396    1.167531   -0.026059
      4          6           0        1.427708   -0.117253    0.051055
      5          6           0        0.649307   -1.210490    0.020544
      6          6           0       -0.792555   -1.135264   -0.022665
      7          1           0       -2.467551    0.168047   -0.069485
      8          1           0       -1.597926   -1.978058    0.152062
      9          1           0        1.020618   -2.248239   -0.046549
     10          1           0        2.610192   -0.160279   -0.132699
     11          1           0        1.230478    2.037309   -0.151424
     12          1           0       -1.017319    2.261349    0.146028
 ---------------------------------------------------------------------

 SCF Done:  E(RB3LYP) =  -232.214295595     A.U. after   13 cycles

 Excitation energies and oscillator strengths:

 Excited State   1:      Singlet-A      5.5827 eV  222.09 nm  f=0.0012  <S**2>=0.000
      20 -> 22        -0.45473
      20 -> 23         0.10317
      21 -> 22         0.15063
      21 -> 23         0.50919
 This state for optimization and/or second-order correction.
 Total Energy, E(TD-HF/TD-DFT) =  -232.009134705
 Copying the excited state density for this state as the 1-particle RhoCI density.

 The electronic state is 1-A.
 Alpha  occ. eigenvalues --  -10.20111 -10.19235 -10.19194 -10.18336 -10.18145
 Alpha  occ. eigenvalues --  -10.18107  -0.85548  -0.74584  -0.74321  -0.59900
 Alpha  occ. eigenvalues --   -0.59088  -0.51618  -0.45577  -0.43495  -0.41356
 Alpha  occ. eigenvalues --   -0.41093  -0.36469  -0.34352  -0.32472  -0.25540
 Alpha  occ. eigenvalues --   -0.24266
 Alpha virt. eigenvalues --   -0.00109   0.00659   0.07386   0.12003   0.13651
 Alpha virt. eigenvalues --    0.16098   0.16691   0.17892   0.19850   0.28299
 Alpha virt. eigenvalues --    0.30831   0.32281   0.34063   0.45510   0.50553

 Mulliken charges:
               1
     1  C   -0.076451
     2  C   -0.068921
     3  C   -0.088485
     4  C   -0.082783
     5  C   -0.099760
     6  C   -0.083684
     7  H    0.078691
     8  H    0.087627
     9  H    0.086018
    10  H    0.085403
    11  H    0.079862
    12  H    0.082484
 Sum of Mulliken charges =  -0.00000

 Dipole moment (field-independent basis, Debye):
    X=             -0.0785    Y=              0.1688    Z=             -0.0647  Tot=              0.1971
 Quadrupole moment (field-independent basis, Debye-Ang):
   XX=            -31.8109   YY=            -31.8751   ZZ=            -38.4285
   XY=              0.3397   XZ=             -0.7092   YZ=             -0.1700

 Normal termination of Gaussian 16 at Fri Nov 10 16:59:18 2023.
