 Gaussian 16, Revision B.01,
 Gaussian 16:  EM64L-G16RevB.01 20-Dec-2017

 ---------------------------------
 # TD=(NStates=1) B3LYP/6-31G(d,p)
 ---------------------------------

 -------
 ABSSPCT
 -------
 Symbolic Z-matrix:
 Charge =  0 Multiplicity = 1

                         Standard orientation:
 ---------------------------------------------------------------------
 Center     Atomic      Atomic             Coordinates (Angstroms)
 Number     Number       Type             X           Y           Z
 ---------------------------------------------------------------------
      1          6           0        0.082758    1.322045   -0.107209
      2          6           0       -1.174239    0.786771   -0.020351
      3          6           0       -1.248276   -0.595575    0.025798
      4          6           0       -0.096907   -1.318787    0.065250
      5          6           0        1.137118   -0.792218   -0.063732
      6          6           0        1.292055    0.627139    0.080077
      7          1           0        0.131684    2.559215    0.073446
      8          1           0        2.293127    1.045169    0.157904
      9          1           0        2.067737   -1.522747   -0.127605
     10          1           0       -0.211026   -2.328641   -0.071226
     11          1           0       -2.225549   -1.250904   -0.046881
     12          1           0       -2.011032    1.321655    0.135365
 ---------------------------------------------------------------------

 SCF Done:  E(RB3LYP) =  -232.202750440     A.U. after   13 cycles

 Excitation energies and oscillator strengths:

 Excited State   1:      Singlet-A      5.4834 eV  226.11 nm  f=0.0003  <S**2>=0.000
      20 -> 22         0.51440
      21 -> 23         0.48452
 This state for optimization and/or second-order correction.
 Total Energy, E(TD-HF/TD-DFT) =  -232.001239026
 Copying the excited state density for this state as the 1-particle RhoCI density.

 The electronic state is 1-A.
 Alpha  occ. eigenvalues --  -10.20327 -10.19833 -10.19701 -10.19159 -10.18101
 Alpha  occ. eigenvalues --  -10.17038  -0.85828  -0.74869  -0.74080  -0.60405
 Alpha  occ. eigenvalues --   -0.58853  -0.52360  -0.44728  -0.44195  -0.42317
 Alpha  occ. eigenvalues --   -0.40464  -0.36533  -0.34982  -0.31600  -0.25444
 Alpha  occ. eigenvalues --   -0.24433
 Alpha virt. eigenvalues --   -0.00904   0.00641   0.07062   0.12295   0.12892
 Alpha virt. eigenvalues --    0.15241   0.16812   0.18608   0.20254   0.28850
 Alpha virt. eigenvalues --    0.29454   0.32660   0.34356   0.46410   0.49395

 Mulliken charges:
               1
     1  C   -0.096516
     2  C   -0.057991
     3  C   -0.090197
     4  C   -0.050579
     5  C   -0.094634
     6  C   -0.085079
     7  H    0.053717
     8  H    0.098297
     9  H    0.077056
    10  H    0.076917
    11  H    0.079156
    12  H    0.089854
 Sum of Mulliken charges =  -0.00000

 Dipole moment (field-independent basis, Debye):
    X=             -0.0069    Y=             -0.2135    Z=              0.0882  Tot=              0.2311
 Quadrupole moment (field-independent basis, Debye-Ang):
   XX=            -31.3743   YY=            -32.6560   ZZ=            -38.4397
   XY=              0.0217   XZ=              0.0016   YZ=              0.7975

 Normal termination of Gaussian 16 at Fri Nov 10 17:30:03 2023.
