 Gaussian 16, Revision B.01,
 Gaussian 16:  EM64L-G16RevB.01 20-Dec-2017

 ---------------------------------
 # TD=(NStates=1) B3LYP/6-31G(d,p)
 ---------------------------------

 -------
 ABSSPCT
 -------
 Symbolic Z-matrix:
 Charge =  0 Multiplicity = 1

                         Standard orientation:
 ---------------------------------------------------------------------
 Center     Atomic      Atomic             Coordinates (Angstroms)
 Number     Number       Type             X           Y           Z
 ---------------------------------------------------------------------
      1          6           0       -1.488123   -0.071164   -0.017450
      2          6           0       -0.682749   -1.237415    0.033857
      3          6           0        0.731228   -1.126295    0.021939
      4          6           0        1.471331    0.054913   -0.044752
      5          6           0        0.620329    1.208530   -0.078973
      6          6           0       -0.736631    1.165215    0.020022
      7          1           0       -2.572458   -0.165061   -0.012051
      8          1           0       -1.160135    2.132425    0.192916
      9          1           0        1.063769    2.286596    0.032915
     10          1           0        2.583490    0.086187    0.328114
     11          1           0        1.494312   -2.120459   -0.067094
     12          1           0       -0.901284   -2.182396   -0.082666
 ---------------------------------------------------------------------

 SCF Done:  E(RB3LYP) =  -232.196413852     A.U. after   13 cycles

 Excitation energies and oscillator strengths:

 Excited State   1:      Singlet-A      5.2130 eV  237.84 nm  f=0.0082  <S**2>=0.000
      20 -> 22         0.45115
      20 -> 23        -0.22050
      21 -> 22         0.35220
      21 -> 23         0.35112
 This state for optimization and/or second-order correction.
 Total Energy, E(TD-HF/TD-DFT) =  -232.004841461
 Copying the excited state density for this state as the 1-particle RhoCI density.

 The electronic state is 1-A.
 Alpha  occ. eigenvalues --  -10.20597 -10.20330 -10.20140 -10.19752 -10.19114
 Alpha  occ. eigenvalues --  -10.18631  -0.84389  -0.74296  -0.73577  -0.61132
 Alpha  occ. eigenvalues --   -0.57913  -0.51314  -0.45411  -0.43496  -0.41852
 Alpha  occ. eigenvalues --   -0.40328  -0.36031  -0.34210  -0.32027  -0.24948
 Alpha  occ. eigenvalues --   -0.24328
 Alpha virt. eigenvalues --   -0.01848   0.00426   0.06925   0.12087   0.12709
 Alpha virt. eigenvalues --    0.14870   0.16308   0.18399   0.18681   0.27871
 Alpha virt. eigenvalues --    0.28968   0.30339   0.32071   0.46305   0.50315

 Mulliken charges:
               1
     1  C   -0.100325
     2  C   -0.051206
     3  C   -0.099579
     4  C   -0.090078
     5  C   -0.090534
     6  C   -0.072920
     7  H    0.098774
     8  H    0.087693
     9  H    0.073798
    10  H    0.101044
    11  H    0.059984
    12  H    0.083350
 Sum of Mulliken charges =  -0.00000

 Dipole moment (field-independent basis, Debye):
    X=             -0.1490    Y=              0.0654    Z=              0.2388  Tot=              0.2890
 Quadrupole moment (field-independent basis, Debye-Ang):
   XX=            -31.5972   YY=            -32.2527   ZZ=            -38.7246
   XY=              0.0839   XZ=              0.5919   YZ=              0.7247

 Normal termination of Gaussian 16 at Fri Nov 10 17:35:01 2023.
