 Gaussian 16, Revision B.01,
 Gaussian 16:  EM64L-G16RevB.01 20-Dec-2017

 ---------------------------------
 # TD=(NStates=1) B3LYP/6-31G(d,p)
 ---------------------------------

 -------
 ABSSPCT
 -------
 Symbolic Z-matrix:
 Charge =  0 Multiplicity = 1

                         Standard orientation:
 ---------------------------------------------------------------------
 Center     Atomic      Atomic             Coordinates (Angstroms)
 Number     Number       Type             X           Y           Z
 ---------------------------------------------------------------------
      1          6           0       -0.558733    1.219271   -0.051969
      2          6           0        0.873340    1.111709   -0.025733
      3          6           0        1.409314   -0.192918    0.038263
      4          6           0        0.542939   -1.253472   -0.037137
      5          6           0       -0.899438   -1.058182    0.027636
      6          6           0       -1.361933    0.195932   -0.030322
      7          1           0       -1.025126    2.192779    0.122317
      8          1           0       -2.498941    0.075054    0.219719
      9          1           0       -1.624707   -1.691369   -0.023535
     10          1           0        1.113925   -2.280431   -0.006684
     11          1           0        2.465478   -0.341449    0.055407
     12          1           0        1.536438    1.911373    0.108349
 ---------------------------------------------------------------------

 SCF Done:  E(RB3LYP) =  -232.194338494     A.U. after   14 cycles

 Excitation energies and oscillator strengths:

 Excited State   1:      Singlet-A      5.5613 eV  222.94 nm  f=0.0015  <S**2>=0.000
      20 -> 22         0.50055
      21 -> 22         0.10570
      21 -> 23        -0.48523
 This state for optimization and/or second-order correction.
 Total Energy, E(TD-HF/TD-DFT) =  -231.989965609
 Copying the excited state density for this state as the 1-particle RhoCI density.

 The electronic state is 1-A.
 Alpha  occ. eigenvalues --  -10.19872 -10.19145 -10.18553 -10.18418 -10.17866
 Alpha  occ. eigenvalues --  -10.17489  -0.85736  -0.76003  -0.73381  -0.62286
 Alpha  occ. eigenvalues --   -0.58184  -0.52228  -0.45887  -0.45129  -0.41728
 Alpha  occ. eigenvalues --   -0.40265  -0.36639  -0.35200  -0.31634  -0.26106
 Alpha  occ. eigenvalues --   -0.23802
 Alpha virt. eigenvalues --   -0.01182   0.01432   0.07995   0.12134   0.14850
 Alpha virt. eigenvalues --    0.16066   0.17167   0.19267   0.21205   0.29119
 Alpha virt. eigenvalues --    0.29968   0.30756   0.33870   0.46059   0.51391

 Mulliken charges:
               1
     1  C   -0.103236
     2  C   -0.088153
     3  C   -0.076028
     4  C   -0.094935
     5  C   -0.053193
     6  C   -0.063492
     7  H    0.079887
     8  H    0.079182
     9  H    0.070142
    10  H    0.072481
    11  H    0.088834
    12  H    0.088512
 Sum of Mulliken charges =  -0.00000

 Dipole moment (field-independent basis, Debye):
    X=              0.0915    Y=              0.0085    Z=              0.2751  Tot=              0.2900
 Quadrupole moment (field-independent basis, Debye-Ang):
   XX=            -30.7478   YY=            -32.9398   ZZ=            -38.2486
   XY=              0.6631   XZ=             -0.2119   YZ=              0.4080

 Normal termination of Gaussian 16 at Fri Nov 10 18:34:18 2023.
