 Gaussian 16, Revision B.01,
 Gaussian 16:  EM64L-G16RevB.01 20-Dec-2017

 ---------------------------------
 # TD=(NStates=1) B3LYP/6-31G(d,p)
 ---------------------------------

 -------
 ABSSPCT
 -------
 Symbolic Z-matrix:
 Charge =  0 Multiplicity = 1

                         Standard orientation:
 ---------------------------------------------------------------------
 Center     Atomic      Atomic             Coordinates (Angstroms)
 Number     Number       Type             X           Y           Z
 ---------------------------------------------------------------------
      1          6           0       -0.927006    1.006288   -0.058841
      2          6           0        0.418118    1.247638    0.031677
      3          6           0        1.394426    0.307205    0.052687
      4          6           0        0.932958   -1.000066   -0.062793
      5          6           0       -0.388754   -1.296000   -0.073591
      6          6           0       -1.425563   -0.292985    0.082811
      7          1           0       -1.577446    1.782777   -0.066584
      8          1           0       -2.650948   -0.418369    0.093900
      9          1           0       -0.837220   -2.280948    0.151545
     10          1           0        1.826570   -1.760492   -0.030553
     11          1           0        2.467630    0.495054    0.204653
     12          1           0        0.746338    2.349501   -0.184666
 ---------------------------------------------------------------------

 SCF Done:  E(RB3LYP) =  -232.205600896     A.U. after   13 cycles

 Excitation energies and oscillator strengths:

 Excited State   1:      Singlet-A      5.4896 eV  225.85 nm  f=0.0031  <S**2>=0.000
      20 -> 22         0.46696
      20 -> 23         0.19081
      21 -> 22        -0.28031
      21 -> 23         0.40771
 This state for optimization and/or second-order correction.
 Total Energy, E(TD-HF/TD-DFT) =  -232.003861041
 Copying the excited state density for this state as the 1-particle RhoCI density.

 The electronic state is 1-A.
 Alpha  occ. eigenvalues --  -10.20729 -10.19557 -10.19382 -10.18807 -10.18731
 Alpha  occ. eigenvalues --  -10.17746  -0.85621  -0.74723  -0.73809  -0.59585
 Alpha  occ. eigenvalues --   -0.59463  -0.51594  -0.45198  -0.44211  -0.41667
 Alpha  occ. eigenvalues --   -0.39852  -0.36558  -0.34982  -0.31249  -0.25249
 Alpha  occ. eigenvalues --   -0.24643
 Alpha virt. eigenvalues --   -0.00809   0.00678   0.06580   0.11473   0.13151
 Alpha virt. eigenvalues --    0.15421   0.16718   0.18108   0.19504   0.28050
 Alpha virt. eigenvalues --    0.30632   0.30688   0.35149   0.46230   0.50462

 Mulliken charges:
               1
     1  C   -0.058607
     2  C   -0.085804
     3  C   -0.071848
     4  C   -0.072748
     5  C   -0.110777
     6  C   -0.100081
     7  H    0.078782
     8  H    0.088959
     9  H    0.089043
    10  H    0.079671
    11  H    0.095370
    12  H    0.068040
 Sum of Mulliken charges =  -0.00000

 Dipole moment (field-independent basis, Debye):
    X=             -0.0036    Y=              0.1180    Z=              0.1137  Tot=              0.1639
 Quadrupole moment (field-independent basis, Debye-Ang):
   XX=            -30.5295   YY=            -33.3585   ZZ=            -38.5343
   XY=             -0.1980   XZ=              0.0733   YZ=             -0.6325

 Normal termination of Gaussian 16 at Fri Nov 10 17:12:07 2023.
