 Gaussian 16, Revision B.01,
 Gaussian 16:  EM64L-G16RevB.01 20-Dec-2017

 ---------------------------------
 # TD=(NStates=1) B3LYP/6-31G(d,p)
 ---------------------------------

 -------
 ABSSPCT
 -------
 Symbolic Z-matrix:
 Charge =  0 Multiplicity = 1

                         Standard orientation:
 ---------------------------------------------------------------------
 Center     Atomic      Atomic             Coordinates (Angstroms)
 Number     Number       Type             X           Y           Z
 ---------------------------------------------------------------------
      1          6           0        1.405571    0.300865   -0.009763
      2          6           0        0.934925   -0.996776    0.019406
      3          6           0       -0.423780   -1.302390    0.012144
      4          6           0       -1.359836   -0.344093   -0.043005
      5          6           0       -0.992850    1.020421    0.041441
      6          6           0        0.406332    1.311337   -0.000852
      7          1           0        2.452496    0.356626   -0.026305
      8          1           0        0.764831    2.386318   -0.018468
      9          1           0       -1.607219    1.876507    0.011664
     10          1           0       -2.437501   -0.620412   -0.126672
     11          1           0       -0.699351   -2.216642    0.159406
     12          1           0        1.704564   -1.718572   -0.115853
 ---------------------------------------------------------------------

 SCF Done:  E(RB3LYP) =  -232.225012323     A.U. after   12 cycles

 Excitation energies and oscillator strengths:

 Excited State   1:      Singlet-A      5.4587 eV  227.13 nm  f=0.0005  <S**2>=0.000
      20 -> 22        -0.46824
      20 -> 23        -0.12998
      21 -> 22        -0.16576
      21 -> 23         0.48572
 This state for optimization and/or second-order correction.
 Total Energy, E(TD-HF/TD-DFT) =  -232.024407328
 Copying the excited state density for this state as the 1-particle RhoCI density.

 The electronic state is 1-A.
 Alpha  occ. eigenvalues --  -10.19686 -10.19085 -10.18945 -10.18296 -10.17924
 Alpha  occ. eigenvalues --  -10.16891  -0.84899  -0.74793  -0.73848  -0.60263
 Alpha  occ. eigenvalues --   -0.59878  -0.52672  -0.46252  -0.43971  -0.42173
 Alpha  occ. eigenvalues --   -0.41551  -0.36149  -0.34480  -0.32997  -0.25005
 Alpha  occ. eigenvalues --   -0.24161
 Alpha virt. eigenvalues --   -0.00207   0.00432   0.09570   0.14296   0.14700
 Alpha virt. eigenvalues --    0.16053   0.17826   0.18852   0.20691   0.28495
 Alpha virt. eigenvalues --    0.30032   0.32367   0.32533   0.46278   0.51146

 Mulliken charges:
               1
     1  C   -0.061682
     2  C   -0.095622
     3  C   -0.043101
     4  C   -0.096369
     5  C   -0.077517
     6  C   -0.112835
     7  H    0.086209
     8  H    0.077576
     9  H    0.089818
    10  H    0.083477
    11  H    0.071780
    12  H    0.078266
 Sum of Mulliken charges =  -0.00000

 Dipole moment (field-independent basis, Debye):
    X=              0.0548    Y=             -0.0902    Z=             -0.0644  Tot=              0.1236
 Quadrupole moment (field-independent basis, Debye-Ang):
   XX=            -31.1486   YY=            -31.9063   ZZ=            -38.3140
   XY=             -0.2341   XZ=             -0.1074   YZ=             -0.1178

 Normal termination of Gaussian 16 at Fri Nov 10 19:02:34 2023.
