 Gaussian 16, Revision B.01,
 Gaussian 16:  EM64L-G16RevB.01 20-Dec-2017

 ---------------------------------
 # TD=(NStates=1) B3LYP/6-31G(d,p)
 ---------------------------------

 -------
 ABSSPCT
 -------
 Symbolic Z-matrix:
 Charge =  0 Multiplicity = 1

                         Standard orientation:
 ---------------------------------------------------------------------
 Center     Atomic      Atomic             Coordinates (Angstroms)
 Number     Number       Type             X           Y           Z
 ---------------------------------------------------------------------
      1          6           0        0.156699    1.390264   -0.006554
      2          6           0       -1.106336    0.862952    0.038312
      3          6           0       -1.350490   -0.552019   -0.002973
      4          6           0       -0.150036   -1.346536   -0.009948
      5          6           0        1.119711   -0.823152    0.024530
      6          6           0        1.344590    0.518855   -0.122520
      7          1           0        0.151810    2.416787    0.206390
      8          1           0        2.276199    0.825369    0.137266
      9          1           0        1.919609   -1.421621    0.198904
     10          1           0       -0.286551   -2.445344    0.087453
     11          1           0       -2.281003   -1.116487   -0.147275
     12          1           0       -1.864894    1.439107   -0.007823
 ---------------------------------------------------------------------

 SCF Done:  E(RB3LYP) =  -232.205743991     A.U. after   13 cycles

 Excitation energies and oscillator strengths:

 Excited State   1:      Singlet-A      5.2157 eV  237.71 nm  f=0.0089  <S**2>=0.000
      20 -> 22         0.48723
      20 -> 23         0.15265
      21 -> 22        -0.30527
      21 -> 23         0.38127
 This state for optimization and/or second-order correction.
 Total Energy, E(TD-HF/TD-DFT) =  -232.014069082
 Copying the excited state density for this state as the 1-particle RhoCI density.

 The electronic state is 1-A.
 Alpha  occ. eigenvalues --  -10.19690 -10.18879 -10.18708 -10.18535 -10.17621
 Alpha  occ. eigenvalues --  -10.17545  -0.84305  -0.75413  -0.73080  -0.61023
 Alpha  occ. eigenvalues --   -0.59720  -0.52308  -0.47433  -0.43331  -0.42934
 Alpha  occ. eigenvalues --   -0.40903  -0.35365  -0.35024  -0.33179  -0.25036
 Alpha  occ. eigenvalues --   -0.23707
 Alpha virt. eigenvalues --   -0.01765   0.00952   0.10324   0.14140   0.15129
 Alpha virt. eigenvalues --    0.15713   0.17691   0.19805   0.20957   0.28554
 Alpha virt. eigenvalues --    0.29117   0.30820   0.32583   0.47120   0.49649

 Mulliken charges:
               1
     1  C   -0.096906
     2  C   -0.061432
     3  C   -0.092111
     4  C   -0.090024
     5  C   -0.060244
     6  C   -0.094174
     7  H    0.086272
     8  H    0.087570
     9  H    0.081856
    10  H    0.073384
    11  H    0.095816
    12  H    0.069994
 Sum of Mulliken charges =  -0.00000

 Dipole moment (field-independent basis, Debye):
    X=             -0.0508    Y=             -0.0505    Z=              0.3048  Tot=              0.3131
 Quadrupole moment (field-independent basis, Debye-Ang):
   XX=            -31.1771   YY=            -31.8335   ZZ=            -38.2135
   XY=             -0.1508   XZ=              0.9199   YZ=              0.2719

 Normal termination of Gaussian 16 at Fri Nov 10 16:52:13 2023.
