 Gaussian 16, Revision B.01,
 Gaussian 16:  EM64L-G16RevB.01 20-Dec-2017

 ---------------------------------
 # TD=(NStates=1) B3LYP/6-31G(d,p)
 ---------------------------------

 -------
 ABSSPCT
 -------
 Symbolic Z-matrix:
 Charge =  0 Multiplicity = 1

                         Standard orientation:
 ---------------------------------------------------------------------
 Center     Atomic      Atomic             Coordinates (Angstroms)
 Number     Number       Type             X           Y           Z
 ---------------------------------------------------------------------
      1          6           0        0.210451    1.360774    0.022997
      2          6           0       -1.131247    0.817767   -0.000237
      3          6           0       -1.284065   -0.524864   -0.040638
      4          6           0       -0.193052   -1.346770    0.005399
      5          6           0        1.127399   -0.852708    0.018567
      6          6           0        1.250467    0.469261   -0.046748
      7          1           0        0.371968    2.598329    0.105075
      8          1           0        2.163882    1.041454    0.001396
      9          1           0        2.084056   -1.256622   -0.054260
     10          1           0       -0.234341   -2.392437    0.190032
     11          1           0       -2.258786   -1.007159   -0.026226
     12          1           0       -2.006497    1.475680    0.027945
 ---------------------------------------------------------------------

 SCF Done:  E(RB3LYP) =  -232.213641047     A.U. after   13 cycles

 Excitation energies and oscillator strengths:

 Excited State   1:      Singlet-A      5.6651 eV  218.85 nm  f=0.0013  <S**2>=0.000
      20 -> 22         0.49733
      21 -> 22        -0.12096
      21 -> 23        -0.48312
 This state for optimization and/or second-order correction.
 Total Energy, E(TD-HF/TD-DFT) =  -232.005451024
 Copying the excited state density for this state as the 1-particle RhoCI density.

 The electronic state is 1-A.
 Alpha  occ. eigenvalues --  -10.20054 -10.18989 -10.18608 -10.18370 -10.17875
 Alpha  occ. eigenvalues --  -10.17394  -0.85840  -0.75799  -0.73398  -0.61179
 Alpha  occ. eigenvalues --   -0.58969  -0.52024  -0.46323  -0.43195  -0.42482
 Alpha  occ. eigenvalues --   -0.40248  -0.36893  -0.33997  -0.32374  -0.25997
 Alpha  occ. eigenvalues --   -0.24071
 Alpha virt. eigenvalues --   -0.00661   0.01559   0.07604   0.12909   0.14307
 Alpha virt. eigenvalues --    0.16798   0.17224   0.18375   0.19125   0.29280
 Alpha virt. eigenvalues --    0.30878   0.31991   0.33770   0.45184   0.52175

 Mulliken charges:
               1
     1  C   -0.090648
     2  C   -0.098563
     3  C   -0.056866
     4  C   -0.113564
     5  C   -0.062524
     6  C   -0.077080
     7  H    0.074025
     8  H    0.077109
     9  H    0.091168
    10  H    0.085268
    11  H    0.086712
    12  H    0.084964
 Sum of Mulliken charges =  -0.00000

 Dipole moment (field-independent basis, Debye):
    X=              0.0230    Y=             -0.0215    Z=              0.1322  Tot=              0.1359
 Quadrupole moment (field-independent basis, Debye-Ang):
   XX=            -31.4264   YY=            -32.1488   ZZ=            -38.3351
   XY=              0.0176   XZ=             -0.0962   YZ=             -0.0593

 Normal termination of Gaussian 16 at Fri Nov 10 17:43:00 2023.
