 Gaussian 16, Revision B.01,
 Gaussian 16:  EM64L-G16RevB.01 20-Dec-2017

 ---------------------------------
 # TD=(NStates=1) B3LYP/6-31G(d,p)
 ---------------------------------

 -------
 ABSSPCT
 -------
 Symbolic Z-matrix:
 Charge =  0 Multiplicity = 1

                         Standard orientation:
 ---------------------------------------------------------------------
 Center     Atomic      Atomic             Coordinates (Angstroms)
 Number     Number       Type             X           Y           Z
 ---------------------------------------------------------------------
      1          6           0        1.046293   -0.903101   -0.001547
      2          6           0        1.351271    0.422115    0.013798
      3          6           0        0.253301    1.388984   -0.009737
      4          6           0       -1.091465    0.871451   -0.032253
      5          6           0       -1.305050   -0.486060    0.041182
      6          6           0       -0.279878   -1.345920   -0.020498
      7          1           0        1.880618   -1.427855   -0.058214
      8          1           0       -0.375272   -2.333792   -0.003246
      9          1           0       -2.163487   -0.801563    0.041741
     10          1           0       -1.922161    1.622659   -0.019662
     11          1           0        0.380186    2.377217    0.035614
     12          1           0        2.353287    0.878520    0.058089
 ---------------------------------------------------------------------

 SCF Done:  E(RB3LYP) =  -232.192172117     A.U. after   13 cycles

 Excitation energies and oscillator strengths:

 Excited State   1:      Singlet-A      5.5049 eV  225.23 nm  f=0.0002  <S**2>=0.000
      20 -> 22         0.49501
      21 -> 23         0.49871
 This state for optimization and/or second-order correction.
 Total Energy, E(TD-HF/TD-DFT) =  -231.989871706
 Copying the excited state density for this state as the 1-particle RhoCI density.

 The electronic state is 1-A.
 Alpha  occ. eigenvalues --  -10.18936 -10.18801 -10.18339 -10.17281 -10.17143
 Alpha  occ. eigenvalues --  -10.16324  -0.84988  -0.75406  -0.73793  -0.61670
 Alpha  occ. eigenvalues --   -0.59911  -0.53527  -0.47690  -0.43897  -0.42942
 Alpha  occ. eigenvalues --   -0.41483  -0.35995  -0.34764  -0.33198  -0.25145
 Alpha  occ. eigenvalues --   -0.23925
 Alpha virt. eigenvalues --   -0.00305   0.00904   0.10915   0.14831   0.16186
 Alpha virt. eigenvalues --    0.16657   0.18855   0.19612   0.20936   0.29390
 Alpha virt. eigenvalues --    0.30008   0.31926   0.33045   0.46655   0.52737

 Mulliken charges:
               1
     1  C   -0.068772
     2  C   -0.093975
     3  C   -0.081649
     4  C   -0.103093
     5  C   -0.022621
     6  C   -0.070660
     7  H    0.073846
     8  H    0.073899
     9  H    0.051774
    10  H    0.080522
    11  H    0.075431
    12  H    0.085297
 Sum of Mulliken charges =  -0.00000

 Dipole moment (field-independent basis, Debye):
    X=              0.0131    Y=             -0.0135    Z=              0.0390  Tot=              0.0433
 Quadrupole moment (field-independent basis, Debye-Ang):
   XX=            -31.1975   YY=            -31.3567   ZZ=            -38.0448
   XY=              0.1116   XZ=             -0.0348   YZ=              0.1471

 Normal termination of Gaussian 16 at Fri Nov 10 19:32:24 2023.
