 Gaussian 16, Revision B.01,
 Gaussian 16:  EM64L-G16RevB.01 20-Dec-2017

 ---------------------------------
 # TD=(NStates=1) B3LYP/6-31G(d,p)
 ---------------------------------

 -------
 ABSSPCT
 -------
 Symbolic Z-matrix:
 Charge =  0 Multiplicity = 1

                         Standard orientation:
 ---------------------------------------------------------------------
 Center     Atomic      Atomic             Coordinates (Angstroms)
 Number     Number       Type             X           Y           Z
 ---------------------------------------------------------------------
      1          6           0       -0.762456   -1.155218   -0.019301
      2          6           0        0.667792   -1.228046    0.009349
      3          6           0        1.450675   -0.053537   -0.046441
      4          6           0        0.728573    1.170474   -0.041830
      5          6           0       -0.633760    1.238528    0.048560
      6          6           0       -1.466468    0.063894    0.024148
      7          1           0       -1.428076   -2.235248   -0.055429
      8          1           0       -2.559579    0.119577   -0.045598
      9          1           0       -0.942043    2.396572   -0.074452
     10          1           0        1.452356    1.991520    0.084477
     11          1           0        2.498747   -0.416927    0.145818
     12          1           0        1.072463   -2.072066    0.098270
 ---------------------------------------------------------------------

 SCF Done:  E(RB3LYP) =  -232.185666755     A.U. after   13 cycles

 Excitation energies and oscillator strengths:

 Excited State   1:      Singlet-A      5.3107 eV  233.46 nm  f=0.0030  <S**2>=0.000
      20 -> 22        -0.20795
      20 -> 23        -0.40580
      21 -> 22         0.50846
      21 -> 23        -0.18165
 This state for optimization and/or second-order correction.
 Total Energy, E(TD-HF/TD-DFT) =  -231.990500548
 Copying the excited state density for this state as the 1-particle RhoCI density.

 The electronic state is 1-A.
 Alpha  occ. eigenvalues --  -10.21021 -10.20596 -10.20418 -10.19597 -10.19308
 Alpha  occ. eigenvalues --  -10.17741  -0.84271  -0.74328  -0.73548  -0.60307
 Alpha  occ. eigenvalues --   -0.58980  -0.51448  -0.46378  -0.42839  -0.42026
 Alpha  occ. eigenvalues --   -0.39641  -0.35763  -0.34190  -0.31956  -0.24819
 Alpha  occ. eigenvalues --   -0.24600
 Alpha virt. eigenvalues --   -0.01102   0.00044   0.06851   0.11551   0.12545
 Alpha virt. eigenvalues --    0.14884   0.15425   0.16557   0.20685   0.28238
 Alpha virt. eigenvalues --    0.29481   0.29743   0.31927   0.45504   0.50736

 Mulliken charges:
               1
     1  C   -0.084026
     2  C   -0.052649
     3  C   -0.087564
     4  C   -0.098922
     5  C   -0.084596
     6  C   -0.096231
     7  H    0.063247
     8  H    0.101728
     9  H    0.084364
    10  H    0.090914
    11  H    0.097357
    12  H    0.066380
 Sum of Mulliken charges =  -0.00000

 Dipole moment (field-independent basis, Debye):
    X=              0.1637    Y=             -0.1477    Z=              0.1101  Tot=              0.2465
 Quadrupole moment (field-independent basis, Debye-Ang):
   XX=            -31.3991   YY=            -32.2135   ZZ=            -38.8718
   XY=             -0.4651   XZ=              0.7395   YZ=             -0.2120

 Normal termination of Gaussian 16 at Fri Nov 10 18:54:42 2023.
