 Gaussian 16, Revision B.01,
 Gaussian 16:  EM64L-G16RevB.01 20-Dec-2017

 ---------------------------------
 # TD=(NStates=1) B3LYP/6-31G(d,p)
 ---------------------------------

 -------
 ABSSPCT
 -------
 Symbolic Z-matrix:
 Charge =  0 Multiplicity = 1

                         Standard orientation:
 ---------------------------------------------------------------------
 Center     Atomic      Atomic             Coordinates (Angstroms)
 Number     Number       Type             X           Y           Z
 ---------------------------------------------------------------------
      1          6           0       -1.228213    0.669855    0.055071
      2          6           0       -1.246304   -0.703484   -0.015461
      3          6           0        0.025828   -1.333030   -0.087572
      4          6           0        1.217374   -0.677427    0.034106
      5          6           0        1.195805    0.702597    0.004772
      6          6           0       -0.018937    1.276945   -0.053251
      7          1           0       -2.066164    1.393806    0.193906
      8          1           0       -0.061162    2.536773   -0.166023
      9          1           0        2.305902    1.280388    0.077510
     10          1           0        2.301283   -1.187079    0.145321
     11          1           0        0.005789   -2.357054    0.072942
     12          1           0       -2.158969   -1.279568    0.050351
 ---------------------------------------------------------------------

 SCF Done:  E(RB3LYP) =  -232.199653637     A.U. after   13 cycles

 Excitation energies and oscillator strengths:

 Excited State   1:      Singlet-A      5.6525 eV  219.34 nm  f=0.0025  <S**2>=0.000
      20 -> 22        -0.31463
      20 -> 23         0.34096
      21 -> 22         0.42391
      21 -> 23         0.32284
 This state for optimization and/or second-order correction.
 Total Energy, E(TD-HF/TD-DFT) =  -231.991927654
 Copying the excited state density for this state as the 1-particle RhoCI density.

 The electronic state is 1-A.
 Alpha  occ. eigenvalues --  -10.19814 -10.19659 -10.19449 -10.19410 -10.18917
 Alpha  occ. eigenvalues --  -10.18290  -0.86315  -0.75020  -0.74056  -0.60066
 Alpha  occ. eigenvalues --   -0.59057  -0.51436  -0.44983  -0.43451  -0.41980
 Alpha  occ. eigenvalues --   -0.39833  -0.37061  -0.34274  -0.31773  -0.25564
 Alpha  occ. eigenvalues --   -0.24841
 Alpha virt. eigenvalues --   -0.00024   0.00586   0.05143   0.11022   0.12830
 Alpha virt. eigenvalues --    0.15789   0.16735   0.17479   0.18922   0.29306
 Alpha virt. eigenvalues --    0.30193   0.32563   0.34454   0.46121   0.51920

 Mulliken charges:
               1
     1  C   -0.060461
     2  C   -0.102540
     3  C   -0.092501
     4  C   -0.079577
     5  C   -0.068766
     6  C   -0.079264
     7  H    0.092518
     8  H    0.052048
     9  H    0.079528
    10  H    0.083008
    11  H    0.082143
    12  H    0.093864
 Sum of Mulliken charges =  -0.00000

 Dipole moment (field-independent basis, Debye):
    X=             -0.1103    Y=             -0.1579    Z=              0.2500  Tot=              0.3156
 Quadrupole moment (field-independent basis, Debye-Ang):
   XX=            -31.2842   YY=            -32.9013   ZZ=            -38.5627
   XY=             -0.0110   XZ=             -0.0363   YZ=             -0.2973

 Normal termination of Gaussian 16 at Fri Nov 10 18:06:49 2023.
