 Gaussian 16, Revision B.01,
 Gaussian 16:  EM64L-G16RevB.01 20-Dec-2017

 ---------------------------------
 # TD=(NStates=1) B3LYP/6-31G(d,p)
 ---------------------------------

 -------
 ABSSPCT
 -------
 Symbolic Z-matrix:
 Charge =  0 Multiplicity = 1

                         Standard orientation:
 ---------------------------------------------------------------------
 Center     Atomic      Atomic             Coordinates (Angstroms)
 Number     Number       Type             X           Y           Z
 ---------------------------------------------------------------------
      1          6           0       -1.447744   -0.118866   -0.021107
      2          6           0       -0.770046    1.174232   -0.025867
      3          6           0        0.653917    1.174382    0.026647
      4          6           0        1.461147    0.056208    0.009196
      5          6           0        0.765542   -1.142752    0.043784
      6          6           0       -0.630985   -1.218647   -0.024232
      7          1           0       -2.569282    0.032667   -0.052893
      8          1           0       -1.028732   -2.115587    0.121754
      9          1           0        1.216634   -1.963576   -0.083293
     10          1           0        2.541075    0.278338   -0.162741
     11          1           0        0.927429    2.226865   -0.052047
     12          1           0       -1.278106    1.993952    0.178691
 ---------------------------------------------------------------------

 SCF Done:  E(RB3LYP) =  -232.194432544     A.U. after   13 cycles

 Excitation energies and oscillator strengths:

 Excited State   1:      Singlet-A      5.3465 eV  231.90 nm  f=0.0039  <S**2>=0.000
      20 -> 22         0.41580
      20 -> 23        -0.21260
      21 -> 22        -0.33038
      21 -> 23        -0.41511
 This state for optimization and/or second-order correction.
 Total Energy, E(TD-HF/TD-DFT) =  -231.997951316
 Copying the excited state density for this state as the 1-particle RhoCI density.

 The electronic state is 1-A.
 Alpha  occ. eigenvalues --  -10.19483 -10.19221 -10.18378 -10.17845 -10.17734
 Alpha  occ. eigenvalues --  -10.17568  -0.84671  -0.74512  -0.74306  -0.61434
 Alpha  occ. eigenvalues --   -0.59800  -0.52263  -0.47360  -0.44225  -0.42516
 Alpha  occ. eigenvalues --   -0.40764  -0.35913  -0.35240  -0.31854  -0.25160
 Alpha  occ. eigenvalues --   -0.23859
 Alpha virt. eigenvalues --   -0.00906   0.00563   0.10244   0.12876   0.15180
 Alpha virt. eigenvalues --    0.16209   0.17509   0.20117   0.20904   0.28353
 Alpha virt. eigenvalues --    0.29642   0.31504   0.32612   0.47195   0.51442

 Mulliken charges:
               1
     1  C   -0.087652
     2  C   -0.085305
     3  C   -0.084941
     4  C   -0.078099
     5  C   -0.074905
     6  C   -0.079308
     7  H    0.089213
     8  H    0.078379
     9  H    0.070510
    10  H    0.096264
    11  H    0.075684
    12  H    0.080161
 Sum of Mulliken charges =  -0.00000

 Dipole moment (field-independent basis, Debye):
    X=             -0.0562    Y=              0.0515    Z=             -0.0224  Tot=              0.0795
 Quadrupole moment (field-independent basis, Debye-Ang):
   XX=            -31.4011   YY=            -31.6124   ZZ=            -38.2095
   XY=             -0.4849   XZ=             -0.6845   YZ=              0.0836

 Normal termination of Gaussian 16 at Fri Nov 10 18:59:14 2023.
