 Gaussian 16, Revision B.01,
 Gaussian 16:  EM64L-G16RevB.01 20-Dec-2017

 ---------------------------------
 # TD=(NStates=1) B3LYP/6-31G(d,p)
 ---------------------------------

 -------
 ABSSPCT
 -------
 Symbolic Z-matrix:
 Charge =  0 Multiplicity = 1

                         Standard orientation:
 ---------------------------------------------------------------------
 Center     Atomic      Atomic             Coordinates (Angstroms)
 Number     Number       Type             X           Y           Z
 ---------------------------------------------------------------------
      1          6           0       -1.254319   -0.704812    0.026251
      2          6           0       -0.023896   -1.345208   -0.010512
      3          6           0        1.187783   -0.726913   -0.076191
      4          6           0        1.323129    0.648899    0.023823
      5          6           0        0.018620    1.355351   -0.029606
      6          6           0       -1.254666    0.766773    0.014544
      7          1           0       -2.352828   -1.193891    0.020024
      8          1           0       -2.193754    1.275723   -0.073669
      9          1           0        0.062512    2.511774    0.027560
     10          1           0        2.384062    1.075954    0.152485
     11          1           0        2.129219   -1.221994    0.086345
     12          1           0       -0.009113   -2.412106    0.097400
 ---------------------------------------------------------------------

 SCF Done:  E(RB3LYP) =  -232.217414135     A.U. after   13 cycles

 Excitation energies and oscillator strengths:

 Excited State   1:      Singlet-A      5.3113 eV  233.43 nm  f=0.0036  <S**2>=0.000
      20 -> 22         0.43479
      20 -> 23        -0.21099
      21 -> 22        -0.30895
      21 -> 23        -0.41299
 This state for optimization and/or second-order correction.
 Total Energy, E(TD-HF/TD-DFT) =  -232.022227548
 Copying the excited state density for this state as the 1-particle RhoCI density.

 The electronic state is 1-A.
 Alpha  occ. eigenvalues --  -10.20681 -10.20533 -10.20423 -10.19806 -10.18555
 Alpha  occ. eigenvalues --  -10.18406  -0.84182  -0.74295  -0.72821  -0.59414
 Alpha  occ. eigenvalues --   -0.59081  -0.50914  -0.45481  -0.44397  -0.41080
 Alpha  occ. eigenvalues --   -0.40134  -0.35683  -0.35197  -0.31460  -0.25106
 Alpha  occ. eigenvalues --   -0.24056
 Alpha virt. eigenvalues --   -0.01119   0.00296   0.07404   0.11883   0.14028
 Alpha virt. eigenvalues --    0.14729   0.15692   0.17390   0.19370   0.26137
 Alpha virt. eigenvalues --    0.28781   0.30983   0.32961   0.46647   0.49660

 Mulliken charges:
               1
     1  C   -0.098713
     2  C   -0.074264
     3  C   -0.073748
     4  C   -0.092657
     5  C   -0.106867
     6  C   -0.076608
     7  H    0.086145
     8  H    0.097639
     9  H    0.071569
    10  H    0.100126
    11  H    0.083753
    12  H    0.083624
 Sum of Mulliken charges =  -0.00000

 Dipole moment (field-independent basis, Debye):
    X=              0.0475    Y=             -0.0471    Z=              0.1810  Tot=              0.1930
 Quadrupole moment (field-independent basis, Debye-Ang):
   XX=            -30.1829   YY=            -33.0452   ZZ=            -38.9058
   XY=             -0.1355   XZ=              0.6020   YZ=             -0.1735

 Normal termination of Gaussian 16 at Fri Nov 10 18:48:49 2023.
