 Gaussian 16, Revision B.01,
 Gaussian 16:  EM64L-G16RevB.01 20-Dec-2017

 ---------------------------------
 # TD=(NStates=1) B3LYP/6-31G(d,p)
 ---------------------------------

 -------
 ABSSPCT
 -------
 Symbolic Z-matrix:
 Charge =  0 Multiplicity = 1

                         Standard orientation:
 ---------------------------------------------------------------------
 Center     Atomic      Atomic             Coordinates (Angstroms)
 Number     Number       Type             X           Y           Z
 ---------------------------------------------------------------------
      1          6           0        1.324607   -0.351172    0.030735
      2          6           0        0.407485   -1.309425   -0.042852
      3          6           0       -0.986921   -0.988054   -0.059854
      4          6           0       -1.386187    0.331517    0.032237
      5          6           0       -0.372627    1.356194    0.010348
      6          6           0        0.979005    0.985691   -0.044886
      7          1           0        2.382706   -0.798195    0.086540
      8          1           0        1.727741    1.728692   -0.031446
      9          1           0       -0.400869    2.379299    0.040209
     10          1           0       -2.502830    0.521528    0.118307
     11          1           0       -1.676545   -1.704239   -0.027233
     12          1           0        0.677620   -2.275580    0.259256
 ---------------------------------------------------------------------

 SCF Done:  E(RB3LYP) =  -232.220377260     A.U. after   13 cycles

 Excitation energies and oscillator strengths:

 Excited State   1:      Singlet-A      5.4959 eV  225.59 nm  f=0.0001  <S**2>=0.000
      20 -> 22         0.50774
      21 -> 23         0.48928
 This state for optimization and/or second-order correction.
 Total Energy, E(TD-HF/TD-DFT) =  -232.018406574
 Copying the excited state density for this state as the 1-particle RhoCI density.

 The electronic state is 1-A.
 Alpha  occ. eigenvalues --  -10.19884 -10.18853 -10.18341 -10.18273 -10.17964
 Alpha  occ. eigenvalues --  -10.17543  -0.85004  -0.74547  -0.74386  -0.60605
 Alpha  occ. eigenvalues --   -0.59793  -0.52189  -0.46638  -0.43871  -0.41522
 Alpha  occ. eigenvalues --   -0.41399  -0.36454  -0.34698  -0.32669  -0.25117
 Alpha  occ. eigenvalues --   -0.24340
 Alpha virt. eigenvalues --   -0.00461   0.00632   0.09342   0.13262   0.15058
 Alpha virt. eigenvalues --    0.15790   0.17590   0.19454   0.20643   0.29394
 Alpha virt. eigenvalues --    0.29668   0.31853   0.32744   0.46154   0.50903

 Mulliken charges:
               1
     1  C   -0.072383
     2  C   -0.080682
     3  C   -0.073224
     4  C   -0.091879
     5  C   -0.080006
     6  C   -0.094016
     7  H    0.075553
     8  H    0.084767
     9  H    0.084103
    10  H    0.085843
    11  H    0.077430
    12  H    0.084494
 Sum of Mulliken charges =  -0.00000

 Dipole moment (field-independent basis, Debye):
    X=             -0.0165    Y=             -0.0141    Z=              0.2663  Tot=              0.2671
 Quadrupole moment (field-independent basis, Debye-Ang):
   XX=            -31.8395   YY=            -31.4445   ZZ=            -38.2633
   XY=              0.5132   XZ=              0.0178   YZ=             -0.4102

 Normal termination of Gaussian 16 at Fri Nov 10 18:53:54 2023.
