 Gaussian 16, Revision B.01,
 Gaussian 16:  EM64L-G16RevB.01 20-Dec-2017

 ---------------------------------
 # TD=(NStates=1) B3LYP/6-31G(d,p)
 ---------------------------------

 -------
 ABSSPCT
 -------
 Symbolic Z-matrix:
 Charge =  0 Multiplicity = 1

                         Standard orientation:
 ---------------------------------------------------------------------
 Center     Atomic      Atomic             Coordinates (Angstroms)
 Number     Number       Type             X           Y           Z
 ---------------------------------------------------------------------
      1          6           0        0.920953   -1.086945    0.091315
      2          6           0       -0.473930   -1.277572   -0.096040
      3          6           0       -1.421660   -0.248873    0.010256
      4          6           0       -0.895016    1.056182   -0.015297
      5          6           0        0.459726    1.316169    0.037817
      6          6           0        1.425791    0.239791   -0.093573
      7          1           0        1.491415   -1.847843    0.247247
      8          1           0        2.426468    0.307093   -0.092539
      9          1           0        0.868816    2.308471    0.038496
     10          1           0       -1.537694    1.977061    0.163834
     11          1           0       -2.403791   -0.486165   -0.021907
     12          1           0       -0.940405   -2.251120    0.058000
 ---------------------------------------------------------------------

 SCF Done:  E(RB3LYP) =  -232.211784534     A.U. after   13 cycles

 Excitation energies and oscillator strengths:

 Excited State   1:      Singlet-A      5.2087 eV  238.03 nm  f=0.0015  <S**2>=0.000
      20 -> 22         0.52754
      21 -> 23         0.45457
 This state for optimization and/or second-order correction.
 Total Energy, E(TD-HF/TD-DFT) =  -232.020367930
 Copying the excited state density for this state as the 1-particle RhoCI density.

 The electronic state is 1-A.
 Alpha  occ. eigenvalues --  -10.19217 -10.19126 -10.18850 -10.18668 -10.18429
 Alpha  occ. eigenvalues --  -10.18171  -0.84055  -0.74348  -0.73706  -0.60968
 Alpha  occ. eigenvalues --   -0.59488  -0.52437  -0.47660  -0.43207  -0.42705
 Alpha  occ. eigenvalues --   -0.40768  -0.35981  -0.34633  -0.32693  -0.24366
 Alpha  occ. eigenvalues --   -0.24218
 Alpha virt. eigenvalues --   -0.01044   0.00014   0.10094   0.13709   0.14863
 Alpha virt. eigenvalues --    0.16188   0.17748   0.18919   0.20672   0.29039
 Alpha virt. eigenvalues --    0.29493   0.30120   0.32426   0.45039   0.48712

 Mulliken charges:
               1
     1  C   -0.064170
     2  C   -0.096989
     3  C   -0.069612
     4  C   -0.084259
     5  C   -0.087401
     6  C   -0.084153
     7  H    0.076527
     8  H    0.082220
     9  H    0.088461
    10  H    0.076372
    11  H    0.088814
    12  H    0.074190
 Sum of Mulliken charges =  -0.00000

 Dipole moment (field-independent basis, Debye):
    X=              0.1289    Y=             -0.0862    Z=              0.2484  Tot=              0.2928
 Quadrupole moment (field-independent basis, Debye-Ang):
   XX=            -30.9722   YY=            -31.9557   ZZ=            -38.3732
   XY=              0.1798   XZ=             -0.0392   YZ=             -0.2327

 Normal termination of Gaussian 16 at Fri Nov 10 16:53:22 2023.
