 Gaussian 16, Revision B.01,
 Gaussian 16:  EM64L-G16RevB.01 20-Dec-2017

 ---------------------------------
 # TD=(NStates=1) B3LYP/6-31G(d,p)
 ---------------------------------

 -------
 ABSSPCT
 -------
 Symbolic Z-matrix:
 Charge =  0 Multiplicity = 1

                         Standard orientation:
 ---------------------------------------------------------------------
 Center     Atomic      Atomic             Coordinates (Angstroms)
 Number     Number       Type             X           Y           Z
 ---------------------------------------------------------------------
      1          6           0        0.649338   -1.172452   -0.077486
      2          6           0        1.452284   -0.054536    0.027603
      3          6           0        0.698411    1.127761   -0.033683
      4          6           0       -0.657372    1.197429   -0.050091
      5          6           0       -1.436417    0.015248    0.059227
      6          6           0       -0.710989   -1.158240   -0.004375
      7          1           0        1.056603   -2.085056    0.010146
      8          1           0       -1.376380   -2.141663    0.151803
      9          1           0       -2.529112    0.233483   -0.093593
     10          1           0       -1.067922    2.280678    0.154049
     11          1           0        1.326663    2.071413    0.025570
     12          1           0        2.618617   -0.090121    0.224863
 ---------------------------------------------------------------------

 SCF Done:  E(RB3LYP) =  -232.208587290     A.U. after   13 cycles

 Excitation energies and oscillator strengths:

 Excited State   1:      Singlet-A      5.5150 eV  224.81 nm  f=0.0050  <S**2>=0.000
      20 -> 22         0.55310
      21 -> 23        -0.42755
 This state for optimization and/or second-order correction.
 Total Energy, E(TD-HF/TD-DFT) =  -232.005916527
 Copying the excited state density for this state as the 1-particle RhoCI density.

 The electronic state is 1-A.
 Alpha  occ. eigenvalues --  -10.20043 -10.19674 -10.19468 -10.19245 -10.18749
 Alpha  occ. eigenvalues --  -10.17748  -0.85693  -0.74533  -0.74099  -0.60265
 Alpha  occ. eigenvalues --   -0.58773  -0.51373  -0.45528  -0.43461  -0.41565
 Alpha  occ. eigenvalues --   -0.39836  -0.36812  -0.34704  -0.31631  -0.25122
 Alpha  occ. eigenvalues --   -0.24877
 Alpha virt. eigenvalues --   -0.00936   0.00959   0.06678   0.12066   0.12743
 Alpha virt. eigenvalues --    0.15702   0.16089   0.18001   0.19338   0.28978
 Alpha virt. eigenvalues --    0.30324   0.31323   0.34232   0.45851   0.50679

 Mulliken charges:
               1
     1  C   -0.070743
     2  C   -0.079458
     3  C   -0.085583
     4  C   -0.084779
     5  C   -0.094659
     6  C   -0.089643
     7  H    0.076856
     8  H    0.078800
     9  H    0.097949
    10  H    0.081246
    11  H    0.072275
    12  H    0.097737
 Sum of Mulliken charges =  -0.00000

 Dipole moment (field-independent basis, Debye):
    X=              0.1502    Y=             -0.0244    Z=              0.2679  Tot=              0.3081
 Quadrupole moment (field-independent basis, Debye-Ang):
   XX=            -31.2931   YY=            -32.6327   ZZ=            -38.5301
   XY=             -0.2495   XZ=              0.4600   YZ=              0.0206

 Normal termination of Gaussian 16 at Fri Nov 10 19:24:59 2023.
