 Gaussian 16, Revision B.01,
 Gaussian 16:  EM64L-G16RevB.01 20-Dec-2017

 ---------------------------------
 # TD=(NStates=1) B3LYP/6-31G(d,p)
 ---------------------------------

 -------
 ABSSPCT
 -------
 Symbolic Z-matrix:
 Charge =  0 Multiplicity = 1

                         Standard orientation:
 ---------------------------------------------------------------------
 Center     Atomic      Atomic             Coordinates (Angstroms)
 Number     Number       Type             X           Y           Z
 ---------------------------------------------------------------------
      1          6           0       -0.872285    1.073685    0.017954
      2          6           0       -1.369917   -0.188088    0.036047
      3          6           0       -0.568023   -1.251807   -0.031812
      4          6           0        0.800562   -1.139054   -0.013203
      5          6           0        1.443385    0.184096    0.027912
      6          6           0        0.590271    1.290821   -0.044168
      7          1           0       -1.563309    2.112063   -0.043797
      8          1           0        0.840713    2.378583   -0.115104
      9          1           0        2.574862    0.181343    0.351714
     10          1           0        1.529165   -1.987879   -0.303052
     11          1           0       -1.117393   -2.353555    0.167790
     12          1           0       -2.407990   -0.148472   -0.013930
 ---------------------------------------------------------------------

 SCF Done:  E(RB3LYP) =  -232.189228685     A.U. after   13 cycles

 Excitation energies and oscillator strengths:

 Excited State   1:      Singlet-A      5.2657 eV  235.45 nm  f=0.0004  <S**2>=0.000
      20 -> 22         0.49309
      21 -> 22        -0.13205
      21 -> 23        -0.48043
 This state for optimization and/or second-order correction.
 Total Energy, E(TD-HF/TD-DFT) =  -231.995716612
 Copying the excited state density for this state as the 1-particle RhoCI density.

 The electronic state is 1-A.
 Alpha  occ. eigenvalues --  -10.20970 -10.20514 -10.20243 -10.20238 -10.19973
 Alpha  occ. eigenvalues --  -10.17807  -0.85028  -0.74564  -0.72975  -0.59475
 Alpha  occ. eigenvalues --   -0.58830  -0.50661  -0.45183  -0.43665  -0.41094
 Alpha  occ. eigenvalues --   -0.39644  -0.36626  -0.33574  -0.32194  -0.25195
 Alpha  occ. eigenvalues --   -0.24116
 Alpha virt. eigenvalues --   -0.01219  -0.00147   0.06004   0.10621   0.12080
 Alpha virt. eigenvalues --    0.15257   0.15899   0.16093   0.18498   0.25727
 Alpha virt. eigenvalues --    0.30332   0.31849   0.32705   0.46128   0.49688

 Mulliken charges:
               1
     1  C   -0.095722
     2  C   -0.048810
     3  C   -0.075862
     4  C   -0.108331
     5  C   -0.099700
     6  C   -0.087193
     7  H    0.075006
     8  H    0.089127
     9  H    0.096886
    10  H    0.093626
    11  H    0.071530
    12  H    0.089443
 Sum of Mulliken charges =  -0.00000

 Dipole moment (field-independent basis, Debye):
    X=             -0.0379    Y=              0.1537    Z=              0.0201  Tot=              0.1596
 Quadrupole moment (field-independent basis, Debye-Ang):
   XX=            -31.7369   YY=            -32.4048   ZZ=            -38.7764
   XY=             -0.5837   XZ=              0.2277   YZ=             -0.0746

 Normal termination of Gaussian 16 at Fri Nov 10 17:11:11 2023.
