 Gaussian 16, Revision B.01,
 Gaussian 16:  EM64L-G16RevB.01 20-Dec-2017

 ---------------------------------
 # TD=(NStates=1) B3LYP/6-31G(d,p)
 ---------------------------------

 -------
 ABSSPCT
 -------
 Symbolic Z-matrix:
 Charge =  0 Multiplicity = 1

                         Standard orientation:
 ---------------------------------------------------------------------
 Center     Atomic      Atomic             Coordinates (Angstroms)
 Number     Number       Type             X           Y           Z
 ---------------------------------------------------------------------
      1          6           0       -1.341406   -0.285366    0.071824
      2          6           0       -0.909394    0.958023   -0.049827
      3          6           0        0.372731    1.322698   -0.042034
      4          6           0        1.354116    0.339608   -0.051444
      5          6           0        0.988171   -1.037879   -0.074011
      6          6           0       -0.456166   -1.288361    0.019976
      7          1           0       -2.404901   -0.608071   -0.111226
      8          1           0       -0.837552   -2.315176   -0.103939
      9          1           0        1.745909   -1.791391    0.361977
     10          1           0        2.417848    0.457791    0.232772
     11          1           0        0.686618    2.314970    0.162602
     12          1           0       -1.656236    1.889540    0.210913
 ---------------------------------------------------------------------

 SCF Done:  E(RB3LYP) =  -232.201065096     A.U. after   13 cycles

 Excitation energies and oscillator strengths:

 Excited State   1:      Singlet-A      5.3890 eV  230.07 nm  f=0.0013  <S**2>=0.000
      20 -> 22         0.48923
      20 -> 23         0.10435
      21 -> 22         0.17125
      21 -> 23        -0.46890
 This state for optimization and/or second-order correction.
 Total Energy, E(TD-HF/TD-DFT) =  -232.003024683
 Copying the excited state density for this state as the 1-particle RhoCI density.

 The electronic state is 1-A.
 Alpha  occ. eigenvalues --  -10.20007 -10.19418 -10.19092 -10.18987 -10.18326
 Alpha  occ. eigenvalues --  -10.18117  -0.86251  -0.75285  -0.73731  -0.60248
 Alpha  occ. eigenvalues --   -0.59102  -0.51564  -0.45243  -0.44070  -0.42517
 Alpha  occ. eigenvalues --   -0.40168  -0.36966  -0.33289  -0.32418  -0.25660
 Alpha  occ. eigenvalues --   -0.24467
 Alpha virt. eigenvalues --   -0.01315   0.00099   0.07400   0.11594   0.13305
 Alpha virt. eigenvalues --    0.15456   0.17551   0.18559   0.19726   0.28569
 Alpha virt. eigenvalues --    0.29123   0.33507   0.33712   0.45680   0.50698

 Mulliken charges:
               1
     1  C   -0.057232
     2  C   -0.081910
     3  C   -0.059892
     4  C   -0.097046
     5  C   -0.108736
     6  C   -0.100186
     7  H    0.088301
     8  H    0.083276
     9  H    0.092018
    10  H    0.089234
    11  H    0.090820
    12  H    0.061354
 Sum of Mulliken charges =  -0.00000

 Dipole moment (field-independent basis, Debye):
    X=              0.0836    Y=              0.0195    Z=              0.4361  Tot=              0.4445
 Quadrupole moment (field-independent basis, Debye-Ang):
   XX=            -32.2464   YY=            -32.4788   ZZ=            -38.1741
   XY=              0.5689   XZ=              1.2047   YZ=              0.3761

 Normal termination of Gaussian 16 at Fri Nov 10 17:32:24 2023.
