 Gaussian 16, Revision B.01,
 Gaussian 16:  EM64L-G16RevB.01 20-Dec-2017

 ---------------------------------
 # TD=(NStates=1) B3LYP/6-31G(d,p)
 ---------------------------------

 -------
 ABSSPCT
 -------
 Symbolic Z-matrix:
 Charge =  0 Multiplicity = 1

                         Standard orientation:
 ---------------------------------------------------------------------
 Center     Atomic      Atomic             Coordinates (Angstroms)
 Number     Number       Type             X           Y           Z
 ---------------------------------------------------------------------
      1          6           0       -0.386530   -1.295925   -0.013309
      2          6           0        0.986168   -1.010159   -0.027166
      3          6           0        1.354986    0.292111    0.036509
      4          6           0        0.439720    1.328934   -0.020511
      5          6           0       -0.964137    1.011684   -0.049022
      6          6           0       -1.447826   -0.246170    0.030798
      7          1           0       -0.800874   -2.291096   -0.139761
      8          1           0       -2.467925   -0.787004    0.210347
      9          1           0       -1.566473    1.626484    0.021566
     10          1           0        0.757853    2.398947    0.027243
     11          1           0        2.431283    0.386636    0.076219
     12          1           0        1.751850   -1.816813    0.060593
 ---------------------------------------------------------------------

 SCF Done:  E(RB3LYP) =  -232.171622091     A.U. after   13 cycles

 Excitation energies and oscillator strengths:

 Excited State   1:      Singlet-A      5.4404 eV  227.90 nm  f=0.0009  <S**2>=0.000
      20 -> 22        -0.47734
      21 -> 23         0.52096
 This state for optimization and/or second-order correction.
 Total Energy, E(TD-HF/TD-DFT) =  -231.971692416
 Copying the excited state density for this state as the 1-particle RhoCI density.

 The electronic state is 1-A.
 Alpha  occ. eigenvalues --  -10.19888 -10.19577 -10.18991 -10.18640 -10.18280
 Alpha  occ. eigenvalues --  -10.16985  -0.84684  -0.75918  -0.72634  -0.61413
 Alpha  occ. eigenvalues --   -0.59168  -0.52142  -0.46321  -0.43962  -0.42877
 Alpha  occ. eigenvalues --   -0.40257  -0.36032  -0.33984  -0.32547  -0.25727
 Alpha  occ. eigenvalues --   -0.23487
 Alpha virt. eigenvalues --   -0.00871   0.00867   0.08447   0.12056   0.14862
 Alpha virt. eigenvalues --    0.15632   0.17865   0.19041   0.20143   0.26881
 Alpha virt. eigenvalues --    0.30415   0.31551   0.33556   0.45976   0.50479

 Mulliken charges:
               1
     1  C   -0.109884
     2  C   -0.068712
     3  C   -0.078780
     4  C   -0.091869
     5  C   -0.036838
     6  C   -0.085378
     7  H    0.075636
     8  H    0.100249
     9  H    0.037641
    10  H    0.088983
    11  H    0.081552
    12  H    0.087401
 Sum of Mulliken charges =  -0.00000

 Dipole moment (field-independent basis, Debye):
    X=             -0.0484    Y=             -0.0537    Z=              0.1679  Tot=              0.1828
 Quadrupole moment (field-independent basis, Debye-Ang):
   XX=            -31.1127   YY=            -31.8703   ZZ=            -38.4081
   XY=              0.1963   XZ=             -0.1215   YZ=              0.0998

 Normal termination of Gaussian 16 at Fri Nov 10 16:58:58 2023.
