 Gaussian 16, Revision B.01,
 Gaussian 16:  EM64L-G16RevB.01 20-Dec-2017

 ---------------------------------
 # TD=(NStates=1) B3LYP/6-31G(d,p)
 ---------------------------------

 -------
 ABSSPCT
 -------
 Symbolic Z-matrix:
 Charge =  0 Multiplicity = 1

                         Standard orientation:
 ---------------------------------------------------------------------
 Center     Atomic      Atomic             Coordinates (Angstroms)
 Number     Number       Type             X           Y           Z
 ---------------------------------------------------------------------
      1          6           0        0.086318   -1.366029   -0.036548
      2          6           0        1.276342   -0.604019    0.016990
      3          6           0        1.247040    0.760638   -0.072726
      4          6           0       -0.138897    1.447293    0.013567
      5          6           0       -1.295161    0.626058   -0.063494
      6          6           0       -1.164614   -0.817673   -0.051463
      7          1           0        0.160858   -2.491912    0.324214
      8          1           0       -2.022873   -1.439844    0.041657
      9          1           0       -2.415544    1.025899    0.311559
     10          1           0       -0.115634    2.456180    0.299324
     11          1           0        2.113854    1.319701   -0.004921
     12          1           0        2.213171   -1.147633    0.190214
 ---------------------------------------------------------------------

 SCF Done:  E(RB3LYP) =  -232.206833127     A.U. after   13 cycles

 Excitation energies and oscillator strengths:

 Excited State   1:      Singlet-A      5.1718 eV  239.73 nm  f=0.0009  <S**2>=0.000
      20 -> 22         0.47634
      20 -> 23         0.11336
      21 -> 22        -0.18007
      21 -> 23         0.47689
 This state for optimization and/or second-order correction.
 Total Energy, E(TD-HF/TD-DFT) =  -232.016773975
 Copying the excited state density for this state as the 1-particle RhoCI density.

 The electronic state is 1-A.
 Alpha  occ. eigenvalues --  -10.21262 -10.20494 -10.19668 -10.19491 -10.19277
 Alpha  occ. eigenvalues --  -10.19149  -0.83627  -0.74090  -0.72856  -0.60201
 Alpha  occ. eigenvalues --   -0.58638  -0.50965  -0.46133  -0.43354  -0.41485
 Alpha  occ. eigenvalues --   -0.40563  -0.35976  -0.33860  -0.32285  -0.25015
 Alpha  occ. eigenvalues --   -0.23951
 Alpha virt. eigenvalues --   -0.01471  -0.00333   0.07387   0.11488   0.12795
 Alpha virt. eigenvalues --    0.15144   0.16811   0.17626   0.19349   0.25881
 Alpha virt. eigenvalues --    0.28386   0.31447   0.32042   0.46773   0.48276

 Mulliken charges:
               1
     1  C   -0.081607
     2  C   -0.072193
     3  C   -0.094896
     4  C   -0.101823
     5  C   -0.093154
     6  C   -0.077215
     7  H    0.074039
     8  H    0.094941
     9  H    0.073972
    10  H    0.099172
    11  H    0.089142
    12  H    0.089621
 Sum of Mulliken charges =  -0.00000

 Dipole moment (field-independent basis, Debye):
    X=              0.1880    Y=             -0.0034    Z=              0.6886  Tot=              0.7138
 Quadrupole moment (field-independent basis, Debye-Ang):
   XX=            -31.5449   YY=            -32.1474   ZZ=            -38.6828
   XY=              0.7276   XZ=             -0.2881   YZ=              0.0769

 Normal termination of Gaussian 16 at Fri Nov 10 17:17:27 2023.
