 Gaussian 16, Revision B.01,
 Gaussian 16:  EM64L-G16RevB.01 20-Dec-2017

 ---------------------------------
 # TD=(NStates=1) B3LYP/6-31G(d,p)
 ---------------------------------

 -------
 ABSSPCT
 -------
 Symbolic Z-matrix:
 Charge =  0 Multiplicity = 1

                         Standard orientation:
 ---------------------------------------------------------------------
 Center     Atomic      Atomic             Coordinates (Angstroms)
 Number     Number       Type             X           Y           Z
 ---------------------------------------------------------------------
      1          6           0       -0.025135   -1.400649   -0.002013
      2          6           0        1.204463   -0.765015   -0.036007
      3          6           0        1.273719    0.701584    0.051540
      4          6           0        0.024314    1.433815   -0.018655
      5          6           0       -1.206905    0.686887   -0.064696
      6          6           0       -1.246878   -0.666779   -0.042838
      7          1           0       -0.137559   -2.447413    0.189795
      8          1           0       -2.110123   -1.208988    0.115496
      9          1           0       -2.402626    1.223094    0.267321
     10          1           0       -0.012935    2.546461    0.107852
     11          1           0        2.232981    1.156633   -0.061830
     12          1           0        2.288795   -1.208841    0.057375
 ---------------------------------------------------------------------

 SCF Done:  E(RB3LYP) =  -232.198876001     A.U. after   13 cycles

 Excitation energies and oscillator strengths:

 Excited State   1:      Singlet-A      5.2170 eV  237.66 nm  f=0.0007  <S**2>=0.000
      20 -> 22         0.43441
      20 -> 23         0.22107
      21 -> 22        -0.27666
      21 -> 23         0.43052
 This state for optimization and/or second-order correction.
 Total Energy, E(TD-HF/TD-DFT) =  -232.007156078
 Copying the excited state density for this state as the 1-particle RhoCI density.

 The electronic state is 1-A.
 Alpha  occ. eigenvalues --  -10.21274 -10.20727 -10.20573 -10.20254 -10.19321
 Alpha  occ. eigenvalues --  -10.18619  -0.83991  -0.73939  -0.73164  -0.60339
 Alpha  occ. eigenvalues --   -0.58627  -0.50450  -0.45994  -0.43907  -0.41823
 Alpha  occ. eigenvalues --   -0.39275  -0.36067  -0.34421  -0.31743  -0.24910
 Alpha  occ. eigenvalues --   -0.24413
 Alpha virt. eigenvalues --   -0.01234  -0.00567   0.05721   0.10378   0.13743
 Alpha virt. eigenvalues --    0.14781   0.15531   0.17505   0.19665   0.26822
 Alpha virt. eigenvalues --    0.28834   0.30063   0.32496   0.46546   0.50360

 Mulliken charges:
               1
     1  C   -0.086276
     2  C   -0.091449
     3  C   -0.094600
     4  C   -0.102687
     5  C   -0.072237
     6  C   -0.061213
     7  H    0.087850
     8  H    0.092000
     9  H    0.049554
    10  H    0.095855
    11  H    0.096444
    12  H    0.086759
 Sum of Mulliken charges =  -0.00000

 Dipole moment (field-independent basis, Debye):
    X=              0.1594    Y=             -0.1843    Z=              0.3655  Tot=              0.4393
 Quadrupole moment (field-independent basis, Debye-Ang):
   XX=            -31.5311   YY=            -32.2583   ZZ=            -38.9354
   XY=              1.0228   XZ=             -0.6788   YZ=             -0.1933

 Normal termination of Gaussian 16 at Fri Nov 10 18:04:27 2023.
