 Gaussian 16, Revision B.01,
 Gaussian 16:  EM64L-G16RevB.01 20-Dec-2017

 ---------------------------------
 # TD=(NStates=1) B3LYP/6-31G(d,p)
 ---------------------------------

 -------
 ABSSPCT
 -------
 Symbolic Z-matrix:
 Charge =  0 Multiplicity = 1

                         Standard orientation:
 ---------------------------------------------------------------------
 Center     Atomic      Atomic             Coordinates (Angstroms)
 Number     Number       Type             X           Y           Z
 ---------------------------------------------------------------------
      1          6           0        1.026135    0.970470   -0.003699
      2          6           0        1.407671   -0.375808    0.037195
      3          6           0        0.345610   -1.286740   -0.051924
      4          6           0       -1.026002   -0.983752   -0.028594
      5          6           0       -1.360738    0.354368   -0.075813
      6          6           0       -0.356230    1.328427    0.022263
      7          1           0        1.755806    1.678085   -0.128020
      8          1           0       -0.710158    2.475325    0.198620
      9          1           0       -2.520137    0.565927    0.139379
     10          1           0       -1.762143   -1.661854    0.172744
     11          1           0        0.562269   -2.357657    0.238513
     12          1           0        2.455687   -0.741615   -0.017812
 ---------------------------------------------------------------------

 SCF Done:  E(RB3LYP) =  -232.216598617     A.U. after   13 cycles

 Excitation energies and oscillator strengths:

 Excited State   1:      Singlet-A      5.3175 eV  233.16 nm  f=0.0019  <S**2>=0.000
      20 -> 22         0.42250
      20 -> 23         0.18504
      21 -> 22        -0.22499
      21 -> 23         0.48602
 This state for optimization and/or second-order correction.
 Total Energy, E(TD-HF/TD-DFT) =  -232.021185517
 Copying the excited state density for this state as the 1-particle RhoCI density.

 The electronic state is 1-A.
 Alpha  occ. eigenvalues --  -10.20599 -10.19843 -10.19589 -10.19083 -10.19033
 Alpha  occ. eigenvalues --  -10.18345  -0.84702  -0.74919  -0.72963  -0.60389
 Alpha  occ. eigenvalues --   -0.58834  -0.51121  -0.45985  -0.43977  -0.42317
 Alpha  occ. eigenvalues --   -0.39511  -0.36121  -0.34714  -0.32178  -0.25262
 Alpha  occ. eigenvalues --   -0.24108
 Alpha virt. eigenvalues --   -0.00654  -0.00315   0.07503   0.12619   0.12909
 Alpha virt. eigenvalues --    0.14978   0.16477   0.18258   0.19938   0.28338
 Alpha virt. eigenvalues --    0.29570   0.31285   0.32820   0.46244   0.50345

 Mulliken charges:
               1
     1  C   -0.085579
     2  C   -0.079702
     3  C   -0.099804
     4  C   -0.059960
     5  C   -0.086931
     6  C   -0.089976
     7  H    0.087029
     8  H    0.080330
     9  H    0.075427
    10  H    0.091359
    11  H    0.070474
    12  H    0.097333
 Sum of Mulliken charges =  -0.00000

 Dipole moment (field-independent basis, Debye):
    X=              0.0548    Y=             -0.0566    Z=              0.3268  Tot=              0.3362
 Quadrupole moment (field-independent basis, Debye-Ang):
   XX=            -31.0772   YY=            -32.7017   ZZ=            -38.5896
   XY=              0.4881   XZ=             -0.8027   YZ=             -0.4282

 Normal termination of Gaussian 16 at Fri Nov 10 17:49:54 2023.
