 Gaussian 16, Revision B.01,
 Gaussian 16:  EM64L-G16RevB.01 20-Dec-2017

 ---------------------------------
 # TD=(NStates=1) B3LYP/6-31G(d,p)
 ---------------------------------

 -------
 ABSSPCT
 -------
 Symbolic Z-matrix:
 Charge =  0 Multiplicity = 1

                         Standard orientation:
 ---------------------------------------------------------------------
 Center     Atomic      Atomic             Coordinates (Angstroms)
 Number     Number       Type             X           Y           Z
 ---------------------------------------------------------------------
      1          6           0       -0.939034    1.014722   -0.038477
      2          6           0       -1.430152   -0.230550   -0.019203
      3          6           0       -0.461344   -1.314740    0.063679
      4          6           0        0.958233   -1.037931   -0.073715
      5          6           0        1.407108    0.303640    0.022524
      6          6           0        0.477459    1.304907   -0.079010
      7          1           0       -1.641622    1.923704    0.133581
      8          1           0        0.834755    2.306907    0.161119
      9          1           0        2.386436    0.252770    0.415779
     10          1           0        1.694811   -1.858657   -0.155337
     11          1           0       -0.919322   -2.261764    0.047805
     12          1           0       -2.428680   -0.603253    0.142267
 ---------------------------------------------------------------------

 SCF Done:  E(RB3LYP) =  -232.214670431     A.U. after   12 cycles

 Excitation energies and oscillator strengths:

 Excited State   1:      Singlet-A      5.1636 eV  240.11 nm  f=0.0014  <S**2>=0.000
      20 -> 22         0.47316
      20 -> 23         0.13787
      21 -> 22        -0.21154
      21 -> 23         0.46020
 This state for optimization and/or second-order correction.
 Total Energy, E(TD-HF/TD-DFT) =  -232.024910780
 Copying the excited state density for this state as the 1-particle RhoCI density.

 The electronic state is 1-A.
 Alpha  occ. eigenvalues --  -10.19881 -10.19565 -10.19347 -10.19292 -10.18840
 Alpha  occ. eigenvalues --  -10.18691  -0.84193  -0.75014  -0.72612  -0.60560
 Alpha  occ. eigenvalues --   -0.58942  -0.51307  -0.46446  -0.43701  -0.42270
 Alpha  occ. eigenvalues --   -0.40642  -0.35585  -0.33669  -0.33005  -0.24874
 Alpha  occ. eigenvalues --   -0.23690
 Alpha virt. eigenvalues --   -0.01226  -0.00089   0.08847   0.12521   0.14014
 Alpha virt. eigenvalues --    0.14622   0.17318   0.18506   0.19746   0.27463
 Alpha virt. eigenvalues --    0.28543   0.31276   0.32649   0.46661   0.50369

 Mulliken charges:
               1
     1  C   -0.087354
     2  C   -0.073708
     3  C   -0.090476
     4  C   -0.107222
     5  C   -0.068225
     6  C   -0.104199
     7  H    0.079973
     8  H    0.088159
     9  H    0.101063
    10  H    0.085986
    11  H    0.082853
    12  H    0.093151
 Sum of Mulliken charges =  -0.00000

 Dipole moment (field-independent basis, Debye):
    X=              0.0094    Y=             -0.2018    Z=              0.4758  Tot=              0.5169
 Quadrupole moment (field-independent basis, Debye-Ang):
   XX=            -31.3306   YY=            -32.2987   ZZ=            -38.4567
   XY=              0.1753   XZ=              0.2746   YZ=              0.6243

 Normal termination of Gaussian 16 at Fri Nov 10 18:05:04 2023.
