 Gaussian 16, Revision B.01,
 Gaussian 16:  EM64L-G16RevB.01 20-Dec-2017

 ---------------------------------
 # TD=(NStates=1) B3LYP/6-31G(d,p)
 ---------------------------------

 -------
 ABSSPCT
 -------
 Symbolic Z-matrix:
 Charge =  0 Multiplicity = 1

                         Standard orientation:
 ---------------------------------------------------------------------
 Center     Atomic      Atomic             Coordinates (Angstroms)
 Number     Number       Type             X           Y           Z
 ---------------------------------------------------------------------
      1          6           0        0.279167    1.273525   -0.016304
      2          6           0        1.289885    0.449591    0.053713
      3          6           0        1.055029   -0.874326   -0.007385
      4          6           0       -0.266899   -1.319019   -0.034878
      5          6           0       -1.302866   -0.442470    0.030697
      6          6           0       -1.012697    0.915316   -0.012654
      7          1           0        0.523496    2.455950    0.003769
      8          1           0       -1.876243    1.685968   -0.013635
      9          1           0       -2.360748   -0.722980   -0.022129
     10          1           0       -0.666430   -2.389300    0.072436
     11          1           0        1.779708   -1.660946   -0.026498
     12          1           0        2.350498    0.615603   -0.093079
 ---------------------------------------------------------------------

 SCF Done:  E(RB3LYP) =  -232.214781528     A.U. after   12 cycles

 Excitation energies and oscillator strengths:

 Excited State   1:      Singlet-A      5.8700 eV  211.22 nm  f=0.0015  <S**2>=0.000
      20 -> 22         0.44191
      20 -> 23        -0.20322
      21 -> 22         0.26361
      21 -> 23         0.43970
 This state for optimization and/or second-order correction.
 Total Energy, E(TD-HF/TD-DFT) =  -231.999061490
 Copying the excited state density for this state as the 1-particle RhoCI density.

 The electronic state is 1-A.
 Alpha  occ. eigenvalues --  -10.18740 -10.18583 -10.18566 -10.18211 -10.18185
 Alpha  occ. eigenvalues --  -10.17634  -0.87108  -0.75581  -0.74393  -0.60435
 Alpha  occ. eigenvalues --   -0.59590  -0.51997  -0.46619  -0.43328  -0.41987
 Alpha  occ. eigenvalues --   -0.40016  -0.37802  -0.34400  -0.31548  -0.25883
 Alpha  occ. eigenvalues --   -0.25048
 Alpha virt. eigenvalues --    0.00323   0.01284   0.07151   0.12493   0.13644
 Alpha virt. eigenvalues --    0.16868   0.18045   0.18629   0.18765   0.30445
 Alpha virt. eigenvalues --    0.31487   0.32942   0.34770   0.45025   0.51886

 Mulliken charges:
               1
     1  C   -0.085825
     2  C   -0.057241
     3  C   -0.097819
     4  C   -0.083958
     5  C   -0.085215
     6  C   -0.075498
     7  H    0.063149
     8  H    0.083139
     9  H    0.084575
    10  H    0.077466
    11  H    0.087697
    12  H    0.089528
 Sum of Mulliken charges =  -0.00000

 Dipole moment (field-independent basis, Debye):
    X=             -0.0435    Y=             -0.1477    Z=             -0.0465  Tot=              0.1609
 Quadrupole moment (field-independent basis, Debye-Ang):
   XX=            -31.2942   YY=            -32.8177   ZZ=            -38.1950
   XY=             -0.3305   XZ=             -0.2174   YZ=             -0.1286

 Normal termination of Gaussian 16 at Fri Nov 10 16:02:42 2023.
