 Gaussian 16, Revision B.01,
 Gaussian 16:  EM64L-G16RevB.01 20-Dec-2017

 ---------------------------------
 # TD=(NStates=1) B3LYP/6-31G(d,p)
 ---------------------------------

 -------
 ABSSPCT
 -------
 Symbolic Z-matrix:
 Charge =  0 Multiplicity = 1

                         Standard orientation:
 ---------------------------------------------------------------------
 Center     Atomic      Atomic             Coordinates (Angstroms)
 Number     Number       Type             X           Y           Z
 ---------------------------------------------------------------------
      1          6           0       -0.853908    1.121463   -0.103424
      2          6           0        0.618847    1.310228    0.108237
      3          6           0        1.446720    0.104538    0.006357
      4          6           0        0.775866   -1.141662   -0.062220
      5          6           0       -0.614149   -1.248488    0.012328
      6          6           0       -1.485763   -0.120975    0.037332
      7          1           0       -1.402519    1.973321   -0.130061
      8          1           0       -2.376253   -0.270137    0.087199
      9          1           0       -0.856430   -2.199586    0.163974
     10          1           0        1.495542   -2.027302   -0.104458
     11          1           0        2.654301    0.087534    0.008020
     12          1           0        1.159681    2.285551   -0.016327
 ---------------------------------------------------------------------

 SCF Done:  E(RB3LYP) =  -232.177101392     A.U. after   13 cycles

 Excitation energies and oscillator strengths:

 Excited State   1:      Singlet-A      5.1031 eV  242.96 nm  f=0.0008  <S**2>=0.000
      20 -> 22         0.47509
      20 -> 23        -0.13960
      21 -> 22         0.18838
      21 -> 23         0.46789
 This state for optimization and/or second-order correction.
 Total Energy, E(TD-HF/TD-DFT) =  -231.989566888
 Copying the excited state density for this state as the 1-particle RhoCI density.

 The electronic state is 1-A.
 Alpha  occ. eigenvalues --  -10.20844 -10.20758 -10.19513 -10.19228 -10.18234
 Alpha  occ. eigenvalues --  -10.18076  -0.83459  -0.74293  -0.72955  -0.60838
 Alpha  occ. eigenvalues --   -0.59611  -0.52055  -0.46773  -0.42879  -0.42533
 Alpha  occ. eigenvalues --   -0.40657  -0.34956  -0.34292  -0.33207  -0.24686
 Alpha  occ. eigenvalues --   -0.23756
 Alpha virt. eigenvalues --   -0.01419  -0.00384   0.08461   0.13585   0.14149
 Alpha virt. eigenvalues --    0.14786   0.17307   0.18513   0.19714   0.27270
 Alpha virt. eigenvalues --    0.28404   0.30009   0.31120   0.46728   0.48920

 Mulliken charges:
               1
     1  C   -0.103222
     2  C   -0.111021
     3  C   -0.088648
     4  C   -0.081207
     5  C   -0.079731
     6  C   -0.016724
     7  H    0.084872
     8  H    0.056747
     9  H    0.079533
    10  H    0.081460
    11  H    0.082951
    12  H    0.094989
 Sum of Mulliken charges =  -0.00000

 Dipole moment (field-independent basis, Debye):
    X=             -0.0865    Y=             -0.1034    Z=              0.0109  Tot=              0.1352
 Quadrupole moment (field-independent basis, Debye-Ang):
   XX=            -30.9423   YY=            -31.7938   ZZ=            -38.7418
   XY=             -0.0711   XZ=             -0.2889   YZ=             -0.4698

 Normal termination of Gaussian 16 at Fri Nov 10 18:20:42 2023.
