 Gaussian 16, Revision B.01,
 Gaussian 16:  EM64L-G16RevB.01 20-Dec-2017

 ---------------------------------
 # TD=(NStates=1) B3LYP/6-31G(d,p)
 ---------------------------------

 -------
 ABSSPCT
 -------
 Symbolic Z-matrix:
 Charge =  0 Multiplicity = 1

                         Standard orientation:
 ---------------------------------------------------------------------
 Center     Atomic      Atomic             Coordinates (Angstroms)
 Number     Number       Type             X           Y           Z
 ---------------------------------------------------------------------
      1          6           0        0.180747    1.379276   -0.018374
      2          6           0       -1.165485    0.774659    0.030255
      3          6           0       -1.293918   -0.526548   -0.063530
      4          6           0       -0.135959   -1.368853    0.048551
      5          6           0        1.133695   -0.827372   -0.020143
      6          6           0        1.317817    0.542554   -0.012164
      7          1           0        0.137625    2.580079    0.153494
      8          1           0        2.278480    0.956777   -0.023283
      9          1           0        2.110326   -1.349292    0.000334
     10          1           0       -0.367970   -2.440898    0.116832
     11          1           0       -2.343881   -0.993318   -0.045898
     12          1           0       -2.035957    1.404356    0.010944
 ---------------------------------------------------------------------

 SCF Done:  E(RB3LYP) =  -232.224555560     A.U. after   12 cycles

 Excitation energies and oscillator strengths:

 Excited State   1:      Singlet-A      5.5133 eV  224.88 nm  f=0.0002  <S**2>=0.000
      20 -> 22         0.49441
      21 -> 23         0.50270
 This state for optimization and/or second-order correction.
 Total Energy, E(TD-HF/TD-DFT) =  -232.021945275
 Copying the excited state density for this state as the 1-particle RhoCI density.

 The electronic state is 1-A.
 Alpha  occ. eigenvalues --  -10.20648 -10.19387 -10.19131 -10.18892 -10.18778
 Alpha  occ. eigenvalues --  -10.18420  -0.84805  -0.75457  -0.72525  -0.60285
 Alpha  occ. eigenvalues --   -0.58746  -0.51445  -0.45247  -0.43730  -0.42555
 Alpha  occ. eigenvalues --   -0.40250  -0.36243  -0.33377  -0.33207  -0.25898
 Alpha  occ. eigenvalues --   -0.23763
 Alpha virt. eigenvalues --   -0.01003   0.01083   0.07830   0.12529   0.13377
 Alpha virt. eigenvalues --    0.15656   0.16621   0.18361   0.19050   0.27585
 Alpha virt. eigenvalues --    0.29614   0.31493   0.33616   0.46281   0.51693

 Mulliken charges:
               1
     1  C   -0.099029
     2  C   -0.077559
     3  C   -0.073916
     4  C   -0.099724
     5  C   -0.074164
     6  C   -0.082337
     7  H    0.077065
     8  H    0.089840
     9  H    0.087231
    10  H    0.086681
    11  H    0.080710
    12  H    0.085202
 Sum of Mulliken charges =  -0.00000

 Dipole moment (field-independent basis, Debye):
    X=             -0.0150    Y=             -0.0283    Z=              0.1241  Tot=              0.1282
 Quadrupole moment (field-independent basis, Debye-Ang):
   XX=            -30.9395   YY=            -32.4196   ZZ=            -38.6667
   XY=             -0.0230   XZ=             -0.0196   YZ=              0.1049

 Normal termination of Gaussian 16 at Fri Nov 10 19:33:11 2023.
