 Gaussian 16, Revision B.01,
 Gaussian 16:  EM64L-G16RevB.01 20-Dec-2017

 ---------------------------------
 # TD=(NStates=1) B3LYP/6-31G(d,p)
 ---------------------------------

 -------
 ABSSPCT
 -------
 Symbolic Z-matrix:
 Charge =  0 Multiplicity = 1

                         Standard orientation:
 ---------------------------------------------------------------------
 Center     Atomic      Atomic             Coordinates (Angstroms)
 Number     Number       Type             X           Y           Z
 ---------------------------------------------------------------------
      1          6           0       -1.435925    0.274540   -0.090084
      2          6           0       -0.453950    1.288723    0.024475
      3          6           0        0.935183    0.972447   -0.015146
      4          6           0        1.408221   -0.321399   -0.023999
      5          6           0        0.472676   -1.246391    0.112823
      6          6           0       -0.926369   -1.007196    0.003906
      7          1           0       -2.461281    0.458404    0.106863
      8          1           0       -1.641792   -1.924289   -0.212431
      9          1           0        0.626422   -2.342757    0.068561
     10          1           0        2.556910   -0.424419   -0.217140
     11          1           0        1.563935    2.023974   -0.079827
     12          1           0       -0.643216    2.444740    0.262128
 ---------------------------------------------------------------------

 SCF Done:  E(RB3LYP) =  -232.200086747     A.U. after   13 cycles

 Excitation energies and oscillator strengths:

 Excited State   1:      Singlet-A      5.3794 eV  230.48 nm  f=0.0055  <S**2>=0.000
      20 -> 22         0.43275
      21 -> 23         0.55150
 This state for optimization and/or second-order correction.
 Total Energy, E(TD-HF/TD-DFT) =  -232.002397280
 Copying the excited state density for this state as the 1-particle RhoCI density.

 The electronic state is 1-A.
 Alpha  occ. eigenvalues --  -10.20169 -10.20032 -10.19948 -10.19806 -10.18993
 Alpha  occ. eigenvalues --  -10.18984  -0.85544  -0.75347  -0.72791  -0.60095
 Alpha  occ. eigenvalues --   -0.58313  -0.50953  -0.45140  -0.44372  -0.41582
 Alpha  occ. eigenvalues --   -0.39024  -0.36472  -0.33547  -0.32551  -0.25795
 Alpha  occ. eigenvalues --   -0.23947
 Alpha virt. eigenvalues --   -0.00481  -0.00274   0.06162   0.11429   0.12310
 Alpha virt. eigenvalues --    0.15175   0.16173   0.17579   0.18197   0.27394
 Alpha virt. eigenvalues --    0.30391   0.31192   0.33689   0.46485   0.51270

 Mulliken charges:
               1
     1  C   -0.083556
     2  C   -0.088891
     3  C   -0.086717
     4  C   -0.064730
     5  C   -0.087429
     6  C   -0.100328
     7  H    0.096310
     8  H    0.083104
     9  H    0.082069
    10  H    0.098036
    11  H    0.072870
    12  H    0.079261
 Sum of Mulliken charges =  -0.00000

 Dipole moment (field-independent basis, Debye):
    X=             -0.0053    Y=             -0.0553    Z=             -0.0467  Tot=              0.0726
 Quadrupole moment (field-independent basis, Debye-Ang):
   XX=            -31.9394   YY=            -32.2904   ZZ=            -38.6814
   XY=              0.3183   XZ=             -0.5941   YZ=              0.6988

 Normal termination of Gaussian 16 at Fri Nov 10 17:16:51 2023.
