 Gaussian 16, Revision B.01,
 Gaussian 16:  EM64L-G16RevB.01 20-Dec-2017

 ---------------------------------
 # TD=(NStates=1) B3LYP/6-31G(d,p)
 ---------------------------------

 -------
 ABSSPCT
 -------
 Symbolic Z-matrix:
 Charge =  0 Multiplicity = 1

                         Standard orientation:
 ---------------------------------------------------------------------
 Center     Atomic      Atomic             Coordinates (Angstroms)
 Number     Number       Type             X           Y           Z
 ---------------------------------------------------------------------
      1          6           0        1.398171    0.441421   -0.016999
      2          6           0        1.027530   -0.901623   -0.006954
      3          6           0       -0.257422   -1.332048    0.048570
      4          6           0       -1.327975   -0.459593   -0.093237
      5          6           0       -1.086032    0.918791   -0.016467
      6          6           0        0.235620    1.328040    0.067162
      7          1           0        2.384963    0.716401   -0.000006
      8          1           0        0.487727    2.492619   -0.130886
      9          1           0       -1.786256    1.773854    0.047322
     10          1           0       -2.380361   -0.923647    0.254397
     11          1           0       -0.464221   -2.461492   -0.080756
     12          1           0        1.818804   -1.567668    0.017479
 ---------------------------------------------------------------------

 SCF Done:  E(RB3LYP) =  -232.209620936     A.U. after   13 cycles

 Excitation energies and oscillator strengths:

 Excited State   1:      Singlet-A      5.3507 eV  231.71 nm  f=0.0044  <S**2>=0.000
      20 -> 22         0.51307
      20 -> 23         0.13881
      21 -> 22         0.21531
      21 -> 23        -0.41308
 This state for optimization and/or second-order correction.
 Total Energy, E(TD-HF/TD-DFT) =  -232.012984723
 Copying the excited state density for this state as the 1-particle RhoCI density.

 The electronic state is 1-A.
 Alpha  occ. eigenvalues --  -10.20316 -10.20149 -10.19538 -10.19199 -10.19116
 Alpha  occ. eigenvalues --  -10.17992  -0.85091  -0.74904  -0.73398  -0.60523
 Alpha  occ. eigenvalues --   -0.58614  -0.51564  -0.45314  -0.44065  -0.42337
 Alpha  occ. eigenvalues --   -0.39765  -0.36969  -0.33673  -0.31852  -0.25399
 Alpha  occ. eigenvalues --   -0.24558
 Alpha virt. eigenvalues --   -0.01677   0.00425   0.07635   0.11787   0.13885
 Alpha virt. eigenvalues --    0.15752   0.16468   0.17059   0.19779   0.26769
 Alpha virt. eigenvalues --    0.29815   0.31646   0.33220   0.46152   0.48031

 Mulliken charges:
               1
     1  C   -0.069281
     2  C   -0.068146
     3  C   -0.078274
     4  C   -0.106350
     5  C   -0.072812
     6  C   -0.101809
     7  H    0.092046
     8  H    0.064975
     9  H    0.098053
    10  H    0.080852
    11  H    0.083392
    12  H    0.077356
 Sum of Mulliken charges =  -0.00000

 Dipole moment (field-independent basis, Debye):
    X=              0.3117    Y=             -0.0333    Z=              0.0619  Tot=              0.3195
 Quadrupole moment (field-independent basis, Debye-Ang):
   XX=            -31.6636   YY=            -32.3350   ZZ=            -38.5931
   XY=             -0.2414   XZ=             -0.5591   YZ=             -0.2305

 Normal termination of Gaussian 16 at Fri Nov 10 18:33:15 2023.
