 Gaussian 16, Revision B.01,
 Gaussian 16:  EM64L-G16RevB.01 20-Dec-2017

 ---------------------------------
 # TD=(NStates=1) B3LYP/6-31G(d,p)
 ---------------------------------

 -------
 ABSSPCT
 -------
 Symbolic Z-matrix:
 Charge =  0 Multiplicity = 1

                         Standard orientation:
 ---------------------------------------------------------------------
 Center     Atomic      Atomic             Coordinates (Angstroms)
 Number     Number       Type             X           Y           Z
 ---------------------------------------------------------------------
      1          6           0       -0.937304   -1.022700   -0.041135
      2          6           0       -1.422654    0.246545    0.032720
      3          6           0       -0.462834    1.308258   -0.049583
      4          6           0        0.971132    0.998453   -0.084061
      5          6           0        1.366404   -0.268901    0.026174
      6          6           0        0.465854   -1.301355    0.049873
      7          1           0       -1.815878   -1.776552   -0.099061
      8          1           0        0.905253   -2.386797   -0.001338
      9          1           0        2.409108   -0.587546    0.009995
     10          1           0        1.713282    1.965210    0.169794
     11          1           0       -0.577519    2.374393    0.180270
     12          1           0       -2.517829    0.649491    0.136411
 ---------------------------------------------------------------------

 SCF Done:  E(RB3LYP) =  -232.202884048     A.U. after   13 cycles

 Excitation energies and oscillator strengths:

 Excited State   1:      Singlet-A      5.3992 eV  229.63 nm  f=0.0000  <S**2>=0.000
      20 -> 22         0.50828
      21 -> 23         0.49091
 This state for optimization and/or second-order correction.
 Total Energy, E(TD-HF/TD-DFT) =  -232.004467194
 Copying the excited state density for this state as the 1-particle RhoCI density.

 The electronic state is 1-A.
 Alpha  occ. eigenvalues --  -10.20264 -10.20238 -10.20175 -10.20093 -10.19733
 Alpha  occ. eigenvalues --  -10.18407  -0.85018  -0.75249  -0.72571  -0.59969
 Alpha  occ. eigenvalues --   -0.58479  -0.50788  -0.45360  -0.42854  -0.41789
 Alpha  occ. eigenvalues --   -0.39821  -0.35996  -0.34095  -0.32232  -0.25890
 Alpha  occ. eigenvalues --   -0.23853
 Alpha virt. eigenvalues --   -0.01495   0.00689   0.06393   0.11064   0.12537
 Alpha virt. eigenvalues --    0.14943   0.15053   0.17730   0.18418   0.27463
 Alpha virt. eigenvalues --    0.29762   0.30645   0.33303   0.45736   0.51668

 Mulliken charges:
               1
     1  C   -0.100605
     2  C   -0.075710
     3  C   -0.098351
     4  C   -0.097598
     5  C   -0.055976
     6  C   -0.090415
     7  H    0.086548
     8  H    0.087358
     9  H    0.086709
    10  H    0.072192
    11  H    0.090355
    12  H    0.095492
 Sum of Mulliken charges =  -0.00000

 Dipole moment (field-independent basis, Debye):
    X=             -0.0273    Y=             -0.0026    Z=              0.2350  Tot=              0.2366
 Quadrupole moment (field-independent basis, Debye-Ang):
   XX=            -31.7539   YY=            -32.2316   ZZ=            -38.8514
   XY=             -0.4966   XZ=              0.0246   YZ=              0.8936

 Normal termination of Gaussian 16 at Fri Nov 10 16:08:19 2023.
