 Gaussian 16, Revision B.01,
 Gaussian 16:  EM64L-G16RevB.01 20-Dec-2017

 ---------------------------------
 # TD=(NStates=1) B3LYP/6-31G(d,p)
 ---------------------------------

 -------
 ABSSPCT
 -------
 Symbolic Z-matrix:
 Charge =  0 Multiplicity = 1

                         Standard orientation:
 ---------------------------------------------------------------------
 Center     Atomic      Atomic             Coordinates (Angstroms)
 Number     Number       Type             X           Y           Z
 ---------------------------------------------------------------------
      1          6           0       -0.461338   -1.303527   -0.016138
      2          6           0       -1.365009   -0.214650    0.059582
      3          6           0       -0.885828    1.023570   -0.017689
      4          6           0        0.510228    1.304479   -0.016272
      5          6           0        1.388362    0.223900   -0.010087
      6          6           0        0.847233   -1.070045   -0.044018
      7          1           0       -0.987101   -2.238369    0.050859
      8          1           0        1.661094   -1.795657    0.161055
      9          1           0        2.438955    0.295262    0.112834
     10          1           0        0.784959    2.424534   -0.007678
     11          1           0       -1.644890    1.932651    0.122576
     12          1           0       -2.454909   -0.400778   -0.171912
 ---------------------------------------------------------------------

 SCF Done:  E(RB3LYP) =  -232.224322866     A.U. after   13 cycles

 Excitation energies and oscillator strengths:

 Excited State   1:      Singlet-A      5.5933 eV  221.67 nm  f=0.0005  <S**2>=0.000
      20 -> 22         0.50083
      21 -> 22         0.11841
      21 -> 23         0.47573
 This state for optimization and/or second-order correction.
 Total Energy, E(TD-HF/TD-DFT) =  -232.018772835
 Copying the excited state density for this state as the 1-particle RhoCI density.

 The electronic state is 1-A.
 Alpha  occ. eigenvalues --  -10.19847 -10.19215 -10.18886 -10.18531 -10.18482
 Alpha  occ. eigenvalues --  -10.18389  -0.85642  -0.74781  -0.74018  -0.60512
 Alpha  occ. eigenvalues --   -0.58958  -0.51641  -0.44695  -0.44650  -0.41743
 Alpha  occ. eigenvalues --   -0.40688  -0.36819  -0.34251  -0.32010  -0.25430
 Alpha  occ. eigenvalues --   -0.24776
 Alpha virt. eigenvalues --   -0.00446   0.00618   0.07693   0.12482   0.13395
 Alpha virt. eigenvalues --    0.16286   0.16764   0.18539   0.19443   0.28716
 Alpha virt. eigenvalues --    0.29469   0.32371   0.34731   0.46013   0.51256

 Mulliken charges:
               1
     1  C   -0.084082
     2  C   -0.088388
     3  C   -0.081070
     4  C   -0.084587
     5  C   -0.089562
     6  C   -0.074195
     7  H    0.086921
     8  H    0.081130
     9  H    0.089749
    10  H    0.085632
    11  H    0.072235
    12  H    0.086217
 Sum of Mulliken charges =  -0.00000

 Dipole moment (field-independent basis, Debye):
    X=              0.0769    Y=             -0.0160    Z=              0.1483  Tot=              0.1678
 Quadrupole moment (field-independent basis, Debye-Ang):
   XX=            -31.4579   YY=            -32.4643   ZZ=            -38.4105
   XY=              0.1939   XZ=              0.6280   YZ=             -0.0614

 Normal termination of Gaussian 16 at Fri Nov 10 18:01:47 2023.
