 Gaussian 16, Revision B.01,
 Gaussian 16:  EM64L-G16RevB.01 20-Dec-2017

 ---------------------------------
 # TD=(NStates=1) B3LYP/6-31G(d,p)
 ---------------------------------

 -------
 ABSSPCT
 -------
 Symbolic Z-matrix:
 Charge =  0 Multiplicity = 1

                         Standard orientation:
 ---------------------------------------------------------------------
 Center     Atomic      Atomic             Coordinates (Angstroms)
 Number     Number       Type             X           Y           Z
 ---------------------------------------------------------------------
      1          6           0       -0.595594    1.258585    0.052027
      2          6           0        0.762794    1.174291   -0.067687
      3          6           0        1.410944   -0.124987   -0.036371
      4          6           0        0.636137   -1.216217    0.081198
      5          6           0       -0.794952   -1.147312    0.001718
      6          6           0       -1.408903    0.057892   -0.069203
      7          1           0       -1.078443    2.077231    0.300904
      8          1           0       -2.411394    0.144319   -0.112755
      9          1           0       -1.418438   -1.927054   -0.064215
     10          1           0        1.160201   -2.164054    0.197224
     11          1           0        2.331068   -0.315366   -0.232252
     12          1           0        1.354447    2.171410    0.141005
 ---------------------------------------------------------------------

 SCF Done:  E(RB3LYP) =  -232.199267272     A.U. after   13 cycles

 Excitation energies and oscillator strengths:

 Excited State   1:      Singlet-A      5.4216 eV  228.68 nm  f=0.0006  <S**2>=0.000
      20 -> 23        -0.46765
      21 -> 22         0.51396
 This state for optimization and/or second-order correction.
 Total Energy, E(TD-HF/TD-DFT) =  -232.000025998
 Copying the excited state density for this state as the 1-particle RhoCI density.

 The electronic state is 1-A.
 Alpha  occ. eigenvalues --  -10.19641 -10.18512 -10.17777 -10.17702 -10.17623
 Alpha  occ. eigenvalues --  -10.17563  -0.84688  -0.75217  -0.73970  -0.60742
 Alpha  occ. eigenvalues --   -0.59984  -0.52839  -0.47417  -0.43957  -0.42521
 Alpha  occ. eigenvalues --   -0.41401  -0.36748  -0.34012  -0.32934  -0.24602
 Alpha  occ. eigenvalues --   -0.24430
 Alpha virt. eigenvalues --   -0.00155   0.00207   0.10285   0.14378   0.14767
 Alpha virt. eigenvalues --    0.16241   0.18343   0.19772   0.21134   0.28861
 Alpha virt. eigenvalues --    0.29557   0.31894   0.33159   0.46580   0.50539

 Mulliken charges:
               1
     1  C   -0.061457
     2  C   -0.107837
     3  C   -0.055629
     4  C   -0.090984
     5  C   -0.065042
     6  C   -0.081962
     7  H    0.077026
     8  H    0.077405
     9  H    0.075822
    10  H    0.080711
    11  H    0.075494
    12  H    0.076453
 Sum of Mulliken charges =  -0.00000

 Dipole moment (field-independent basis, Debye):
    X=             -0.1799    Y=             -0.1422    Z=              0.1291  Tot=              0.2631
 Quadrupole moment (field-independent basis, Debye-Ang):
   XX=            -31.0663   YY=            -31.9816   ZZ=            -37.9993
   XY=             -0.4812   XZ=             -0.1620   YZ=              0.6236

 Normal termination of Gaussian 16 at Fri Nov 10 18:25:44 2023.
