 Gaussian 16, Revision B.01,
 Gaussian 16:  EM64L-G16RevB.01 20-Dec-2017

 ---------------------------------
 # TD=(NStates=1) B3LYP/6-31G(d,p)
 ---------------------------------

 -------
 ABSSPCT
 -------
 Symbolic Z-matrix:
 Charge =  0 Multiplicity = 1

                         Standard orientation:
 ---------------------------------------------------------------------
 Center     Atomic      Atomic             Coordinates (Angstroms)
 Number     Number       Type             X           Y           Z
 ---------------------------------------------------------------------
      1          6           0        1.357783    0.465923   -0.101379
      2          6           0        1.102889   -0.817631    0.025777
      3          6           0       -0.239036   -1.344448   -0.014711
      4          6           0       -1.317541   -0.520099   -0.055312
      5          6           0       -1.123568    0.790324    0.101320
      6          6           0        0.222071    1.371880    0.029615
      7          1           0        2.537895    0.847031   -0.002981
      8          1           0       -0.043826    2.633183   -0.115917
      9          1           0       -1.828395    1.616363    0.083044
     10          1           0       -2.185595   -0.848996   -0.240354
     11          1           0       -0.413218   -2.429943    0.098296
     12          1           0        1.917560   -1.493331    0.266058
 ---------------------------------------------------------------------

 SCF Done:  E(RB3LYP) =  -232.163528786     A.U. after   13 cycles

 Excitation energies and oscillator strengths:

 Excited State   1:      Singlet-A      5.4025 eV  229.49 nm  f=0.0022  <S**2>=0.000
      20 -> 22         0.46415
      21 -> 23         0.52723
 This state for optimization and/or second-order correction.
 Total Energy, E(TD-HF/TD-DFT) =  -231.964991059
 Copying the excited state density for this state as the 1-particle RhoCI density.

 The electronic state is 1-A.
 Alpha  occ. eigenvalues --  -10.21706 -10.20731 -10.19069 -10.18742 -10.18684
 Alpha  occ. eigenvalues --  -10.16948  -0.85426  -0.76305  -0.72390  -0.60380
 Alpha  occ. eigenvalues --   -0.59010  -0.52003  -0.45094  -0.44311  -0.42998
 Alpha  occ. eigenvalues --   -0.38900  -0.36232  -0.33986  -0.32118  -0.26336
 Alpha  occ. eigenvalues --   -0.23297
 Alpha virt. eigenvalues --   -0.01487   0.00865   0.05496   0.10135   0.13716
 Alpha virt. eigenvalues --    0.14961   0.16844   0.18444   0.20281   0.26777
 Alpha virt. eigenvalues --    0.29337   0.32118   0.33948   0.46378   0.51153

 Mulliken charges:
               1
     1  C   -0.101294
     2  C   -0.065239
     3  C   -0.106727
     4  C   -0.021378
     5  C   -0.086468
     6  C   -0.100302
     7  H    0.078142
     8  H    0.074246
     9  H    0.084219
    10  H    0.069566
    11  H    0.084615
    12  H    0.090621
 Sum of Mulliken charges =  -0.00000

 Dipole moment (field-independent basis, Debye):
    X=             -0.2920    Y=             -0.2474    Z=              0.0292  Tot=              0.3838
 Quadrupole moment (field-independent basis, Debye-Ang):
   XX=            -31.7372   YY=            -32.2237   ZZ=            -38.5448
   XY=             -0.7608   XZ=              0.7764   YZ=             -0.5458

 Normal termination of Gaussian 16 at Fri Nov 10 19:07:42 2023.
