 Gaussian 16, Revision B.01,
 Gaussian 16:  EM64L-G16RevB.01 20-Dec-2017

 ---------------------------------
 # TD=(NStates=1) B3LYP/6-31G(d,p)
 ---------------------------------

 -------
 ABSSPCT
 -------
 Symbolic Z-matrix:
 Charge =  0 Multiplicity = 1

                         Standard orientation:
 ---------------------------------------------------------------------
 Center     Atomic      Atomic             Coordinates (Angstroms)
 Number     Number       Type             X           Y           Z
 ---------------------------------------------------------------------
      1          6           0        0.522617    1.234014    0.067698
      2          6           0       -0.880097    1.027663    0.044358
      3          6           0       -1.435773   -0.194706   -0.006938
      4          6           0       -0.482804   -1.211989   -0.040693
      5          6           0        0.875004   -1.080875    0.054917
      6          6           0        1.395000    0.253800   -0.122459
      7          1           0        0.662999    2.327749   -0.053607
      8          1           0        2.475991    0.317671   -0.059245
      9          1           0        1.694570   -1.900564    0.312155
     10          1           0       -0.885967   -2.310707   -0.109778
     11          1           0       -2.536117   -0.590756   -0.034092
     12          1           0       -1.375154    1.989164   -0.036736
 ---------------------------------------------------------------------

 SCF Done:  E(RB3LYP) =  -232.204847575     A.U. after   13 cycles

 Excitation energies and oscillator strengths:

 Excited State   1:      Singlet-A      5.4834 eV  226.11 nm  f=0.0083  <S**2>=0.000
      20 -> 22        -0.32831
      20 -> 23         0.26202
      21 -> 22         0.42151
      21 -> 23         0.38041
 This state for optimization and/or second-order correction.
 Total Energy, E(TD-HF/TD-DFT) =  -232.003335476
 Copying the excited state density for this state as the 1-particle RhoCI density.

 The electronic state is 1-A.
 Alpha  occ. eigenvalues --  -10.19876 -10.19676 -10.19205 -10.18730 -10.18592
 Alpha  occ. eigenvalues --  -10.18393  -0.85897  -0.75085  -0.73749  -0.60389
 Alpha  occ. eigenvalues --   -0.58727  -0.51717  -0.44709  -0.44040  -0.42179
 Alpha  occ. eigenvalues --   -0.39825  -0.36751  -0.34193  -0.31848  -0.25757
 Alpha  occ. eigenvalues --   -0.24091
 Alpha virt. eigenvalues --   -0.00513   0.00611   0.06970   0.11557   0.12466
 Alpha virt. eigenvalues --    0.15582   0.16962   0.18034   0.20190   0.27886
 Alpha virt. eigenvalues --    0.28897   0.33721   0.35042   0.45305   0.50191

 Mulliken charges:
               1
     1  C   -0.061586
     2  C   -0.107647
     3  C   -0.052761
     4  C   -0.094478
     5  C   -0.089019
     6  C   -0.094066
     7  H    0.077068
     8  H    0.086397
     9  H    0.091193
    10  H    0.066734
    11  H    0.096380
    12  H    0.081783
 Sum of Mulliken charges =  -0.00000

 Dipole moment (field-independent basis, Debye):
    X=              0.0283    Y=              0.0003    Z=              0.0073  Tot=              0.0292
 Quadrupole moment (field-independent basis, Debye-Ang):
   XX=            -31.6158   YY=            -32.4798   ZZ=            -38.4668
   XY=             -0.2581   XZ=              0.4845   YZ=             -0.4846

 Normal termination of Gaussian 16 at Fri Nov 10 18:44:46 2023.
