 Gaussian 16, Revision B.01,
 Gaussian 16:  EM64L-G16RevB.01 20-Dec-2017

 ---------------------------------
 # TD=(NStates=1) B3LYP/6-31G(d,p)
 ---------------------------------

 -------
 ABSSPCT
 -------
 Symbolic Z-matrix:
 Charge =  0 Multiplicity = 1

                         Standard orientation:
 ---------------------------------------------------------------------
 Center     Atomic      Atomic             Coordinates (Angstroms)
 Number     Number       Type             X           Y           Z
 ---------------------------------------------------------------------
      1          6           0       -1.435669   -0.082031   -0.014103
      2          6           0       -0.641075   -1.186496    0.039105
      3          6           0        0.773722   -1.133428    0.010073
      4          6           0        1.346648    0.064599   -0.007804
      5          6           0        0.635273    1.203027    0.002406
      6          6           0       -0.711351    1.118561   -0.012619
      7          1           0       -2.402257   -0.175825   -0.047271
      8          1           0       -1.385774    2.024291    0.148495
      9          1           0        1.042987    2.300660   -0.086170
     10          1           0        2.485124    0.172951    0.019062
     11          1           0        1.499438   -2.045948   -0.010086
     12          1           0       -1.044807   -2.181519   -0.126380
 ---------------------------------------------------------------------

 SCF Done:  E(RB3LYP) =  -232.213436341     A.U. after   12 cycles

 Excitation energies and oscillator strengths:

 Excited State   1:      Singlet-A      5.7696 eV  214.89 nm  f=0.0009  <S**2>=0.000
      20 -> 22        -0.47594
      21 -> 23         0.51796
 This state for optimization and/or second-order correction.
 Total Energy, E(TD-HF/TD-DFT) =  -232.001407399
 Copying the excited state density for this state as the 1-particle RhoCI density.

 The electronic state is 1-A.
 Alpha  occ. eigenvalues --  -10.18936 -10.18677 -10.18597 -10.18521 -10.18220
 Alpha  occ. eigenvalues --  -10.17545  -0.86490  -0.75663  -0.73994  -0.60404
 Alpha  occ. eigenvalues --   -0.59610  -0.52164  -0.45976  -0.44290  -0.41963
 Alpha  occ. eigenvalues --   -0.40416  -0.37412  -0.33642  -0.32409  -0.25740
 Alpha  occ. eigenvalues --   -0.24769
 Alpha virt. eigenvalues --    0.00421   0.00828   0.07312   0.12689   0.14374
 Alpha virt. eigenvalues --    0.17100   0.17565   0.17842   0.19812   0.29196
 Alpha virt. eigenvalues --    0.31123   0.33808   0.34325   0.44806   0.51423

 Mulliken charges:
               1
     1  C   -0.031553
     2  C   -0.112228
     3  C   -0.077009
     4  C   -0.081832
     5  C   -0.061669
     6  C   -0.107381
     7  H    0.075382
     8  H    0.072099
     9  H    0.085036
    10  H    0.076007
    11  H    0.085984
    12  H    0.077164
 Sum of Mulliken charges =  -0.00000

 Dipole moment (field-independent basis, Debye):
    X=             -0.0958    Y=             -0.0330    Z=             -0.0720  Tot=              0.1243
 Quadrupole moment (field-independent basis, Debye-Ang):
   XX=            -31.5069   YY=            -32.3676   ZZ=            -38.2211
   XY=             -0.1020   XZ=              0.0042   YZ=              0.3078

 Normal termination of Gaussian 16 at Fri Nov 10 16:04:18 2023.
