 Gaussian 16, Revision B.01,
 Gaussian 16:  EM64L-G16RevB.01 20-Dec-2017

 ---------------------------------
 # TD=(NStates=1) B3LYP/6-31G(d,p)
 ---------------------------------

 -------
 ABSSPCT
 -------
 Symbolic Z-matrix:
 Charge =  0 Multiplicity = 1

                         Standard orientation:
 ---------------------------------------------------------------------
 Center     Atomic      Atomic             Coordinates (Angstroms)
 Number     Number       Type             X           Y           Z
 ---------------------------------------------------------------------
      1          6           0       -1.304887   -0.456727   -0.040538
      2          6           0       -0.244891   -1.277716    0.017039
      3          6           0        0.994866   -0.872109   -0.036103
      4          6           0        1.273540    0.367089    0.046240
      5          6           0        0.296786    1.299303    0.026081
      6          6           0       -1.001911    0.891001   -0.029268
      7          1           0       -2.434965   -0.851811    0.276927
      8          1           0       -1.765417    1.808726   -0.125357
      9          1           0        0.492470    2.487317    0.020005
     10          1           0        2.335513    0.629176    0.001816
     11          1           0        1.881918   -1.543657   -0.104113
     12          1           0       -0.590533   -2.234796    0.030012
 ---------------------------------------------------------------------

 SCF Done:  E(RB3LYP) =  -232.180885812     A.U. after   13 cycles

 Excitation energies and oscillator strengths:

 Excited State   1:      Singlet-A      5.9921 eV  206.91 nm  f=0.0023  <S**2>=0.000
      20 -> 22         0.26159
      20 -> 23         0.38070
      21 -> 22         0.47129
      21 -> 23        -0.25262
 This state for optimization and/or second-order correction.
 Total Energy, E(TD-HF/TD-DFT) =  -231.960679914
 Copying the excited state density for this state as the 1-particle RhoCI density.

 The electronic state is 1-A.
 Alpha  occ. eigenvalues --  -10.19378 -10.19143 -10.18835 -10.17153 -10.16926
 Alpha  occ. eigenvalues --  -10.16631  -0.88374  -0.75878  -0.75139  -0.60262
 Alpha  occ. eigenvalues --   -0.59741  -0.52913  -0.45879  -0.42514  -0.41531
 Alpha  occ. eigenvalues --   -0.40968  -0.38509  -0.33282  -0.32372  -0.25961
 Alpha  occ. eigenvalues --   -0.25484
 Alpha virt. eigenvalues --    0.00668   0.01428   0.06338   0.11513   0.12220
 Alpha virt. eigenvalues --    0.16671   0.18329   0.19671   0.19927   0.31002
 Alpha virt. eigenvalues --    0.31433   0.34983   0.36153   0.44688   0.51025

 Mulliken charges:
               1
     1  C   -0.103190
     2  C   -0.074726
     3  C   -0.040554
     4  C   -0.078041
     5  C   -0.073461
     6  C   -0.088074
     7  H    0.079257
     8  H    0.071740
     9  H    0.075475
    10  H    0.078002
    11  H    0.077338
    12  H    0.076233
 Sum of Mulliken charges =  -0.00000

 Dipole moment (field-independent basis, Debye):
    X=              0.1752    Y=             -0.0867    Z=              0.0669  Tot=              0.2066
 Quadrupole moment (field-independent basis, Debye-Ang):
   XX=            -32.1309   YY=            -32.3927   ZZ=            -37.9344
   XY=              0.1342   XZ=             -0.5370   YZ=             -0.2608

 Normal termination of Gaussian 16 at Fri Nov 10 16:36:51 2023.
