 Gaussian 16, Revision B.01,
 Gaussian 16:  EM64L-G16RevB.01 20-Dec-2017

 ---------------------------------
 # TD=(NStates=1) B3LYP/6-31G(d,p)
 ---------------------------------

 -------
 ABSSPCT
 -------
 Symbolic Z-matrix:
 Charge =  0 Multiplicity = 1

                         Standard orientation:
 ---------------------------------------------------------------------
 Center     Atomic      Atomic             Coordinates (Angstroms)
 Number     Number       Type             X           Y           Z
 ---------------------------------------------------------------------
      1          6           0       -1.320345    0.571472   -0.034104
      2          6           0       -1.110834   -0.807167    0.075759
      3          6           0        0.166381   -1.399723   -0.052718
      4          6           0        1.290976   -0.560604   -0.021619
      5          6           0        1.127212    0.821575    0.036077
      6          6           0       -0.174510    1.373776   -0.072468
      7          1           0       -2.426577    0.826898    0.121014
      8          1           0       -0.232517    2.484577   -0.015491
      9          1           0        2.075512    1.546128    0.225247
     10          1           0        2.320821   -0.909173    0.064915
     11          1           0        0.247701   -2.409998   -0.075171
     12          1           0       -1.858219   -1.534404    0.093922
 ---------------------------------------------------------------------

 SCF Done:  E(RB3LYP) =  -232.228537907     A.U. after   12 cycles

 Excitation energies and oscillator strengths:

 Excited State   1:      Singlet-A      5.3990 eV  229.64 nm  f=0.0008  <S**2>=0.000
      20 -> 22         0.42362
      20 -> 23        -0.24162
      21 -> 22        -0.28817
      21 -> 23        -0.42276
 This state for optimization and/or second-order correction.
 Total Energy, E(TD-HF/TD-DFT) =  -232.030126549
 Copying the excited state density for this state as the 1-particle RhoCI density.

 The electronic state is 1-A.
 Alpha  occ. eigenvalues --  -10.20080 -10.19856 -10.19702 -10.18945 -10.18319
 Alpha  occ. eigenvalues --  -10.18265  -0.84480  -0.74075  -0.73742  -0.60323
 Alpha  occ. eigenvalues --   -0.58965  -0.51419  -0.45987  -0.43937  -0.41409
 Alpha  occ. eigenvalues --   -0.40672  -0.35894  -0.34061  -0.33142  -0.24920
 Alpha  occ. eigenvalues --   -0.24326
 Alpha virt. eigenvalues --   -0.00452   0.00135   0.07766   0.12881   0.14404
 Alpha virt. eigenvalues --    0.15233   0.16601   0.17895   0.20131   0.28511
 Alpha virt. eigenvalues --    0.30104   0.31140   0.32355   0.46269   0.51539

 Mulliken charges:
               1
     1  C   -0.081019
     2  C   -0.087027
     3  C   -0.071883
     4  C   -0.086030
     5  C   -0.079621
     6  C   -0.104460
     7  H    0.094823
     8  H    0.085258
     9  H    0.082755
    10  H    0.084702
    11  H    0.081793
    12  H    0.080709
 Sum of Mulliken charges =  -0.00000

 Dipole moment (field-independent basis, Debye):
    X=             -0.0155    Y=             -0.1840    Z=              0.2349  Tot=              0.2988
 Quadrupole moment (field-independent basis, Debye-Ang):
   XX=            -31.5029   YY=            -31.7545   ZZ=            -38.6446
   XY=              0.4159   XZ=              0.0791   YZ=              0.3173

 Normal termination of Gaussian 16 at Fri Nov 10 19:35:39 2023.
