 Gaussian 16, Revision B.01,
 Gaussian 16:  EM64L-G16RevB.01 20-Dec-2017

 ---------------------------------
 # TD=(NStates=1) B3LYP/6-31G(d,p)
 ---------------------------------

 -------
 ABSSPCT
 -------
 Symbolic Z-matrix:
 Charge =  0 Multiplicity = 1

                         Standard orientation:
 ---------------------------------------------------------------------
 Center     Atomic      Atomic             Coordinates (Angstroms)
 Number     Number       Type             X           Y           Z
 ---------------------------------------------------------------------
      1          6           0       -1.370807   -0.123717   -0.078279
      2          6           0       -0.798233    1.154151    0.040712
      3          6           0        0.608533    1.233500    0.034081
      4          6           0        1.422099    0.054733   -0.049648
      5          6           0        0.732335   -1.106869    0.019531
      6          6           0       -0.614668   -1.245466   -0.013878
      7          1           0       -2.455931   -0.176529   -0.061158
      8          1           0       -1.030950   -2.058423    0.103943
      9          1           0        1.386673   -2.000849    0.302465
     10          1           0        2.521854    0.214556   -0.207444
     11          1           0        1.087746    2.158148   -0.009011
     12          1           0       -1.384951    2.065105    0.156090
 ---------------------------------------------------------------------

 SCF Done:  E(RB3LYP) =  -232.211073414     A.U. after   13 cycles

 Excitation energies and oscillator strengths:

 Excited State   1:      Singlet-A      5.5088 eV  225.07 nm  f=0.0008  <S**2>=0.000
      20 -> 22         0.17086
      20 -> 23        -0.44722
      21 -> 22         0.49585
      21 -> 23         0.15640
 This state for optimization and/or second-order correction.
 Total Energy, E(TD-HF/TD-DFT) =  -232.008628429
 Copying the excited state density for this state as the 1-particle RhoCI density.

 The electronic state is 1-A.
 Alpha  occ. eigenvalues --  -10.18929 -10.18813 -10.18458 -10.18389 -10.18338
 Alpha  occ. eigenvalues --  -10.16438  -0.85533  -0.74926  -0.74109  -0.60990
 Alpha  occ. eigenvalues --   -0.59477  -0.52612  -0.46339  -0.44507  -0.42486
 Alpha  occ. eigenvalues --   -0.41247  -0.36758  -0.34623  -0.32306  -0.24705
 Alpha  occ. eigenvalues --   -0.24592
 Alpha virt. eigenvalues --   -0.00015   0.00540   0.09464   0.13626   0.14967
 Alpha virt. eigenvalues --    0.16481   0.17865   0.19108   0.20672   0.29036
 Alpha virt. eigenvalues --    0.30490   0.32391   0.34325   0.45880   0.52426

 Mulliken charges:
               1
     1  C   -0.105615
     2  C   -0.076559
     3  C   -0.098515
     4  C   -0.076949
     5  C   -0.104422
     6  C   -0.002704
     7  H    0.078969
     8  H    0.056260
     9  H    0.070108
    10  H    0.093676
    11  H    0.078296
    12  H    0.087456
 Sum of Mulliken charges =  -0.00000

 Dipole moment (field-independent basis, Debye):
    X=             -0.0521    Y=              0.0953    Z=              0.1524  Tot=              0.1872
 Quadrupole moment (field-independent basis, Debye-Ang):
   XX=            -31.3506   YY=            -31.9650   ZZ=            -38.0923
   XY=              0.4622   XZ=             -0.3235   YZ=             -0.4035

 Normal termination of Gaussian 16 at Fri Nov 10 17:23:07 2023.
