 Gaussian 16, Revision B.01,
 Gaussian 16:  EM64L-G16RevB.01 20-Dec-2017

 ---------------------------------
 # TD=(NStates=1) B3LYP/6-31G(d,p)
 ---------------------------------

 -------
 ABSSPCT
 -------
 Symbolic Z-matrix:
 Charge =  0 Multiplicity = 1

                         Standard orientation:
 ---------------------------------------------------------------------
 Center     Atomic      Atomic             Coordinates (Angstroms)
 Number     Number       Type             X           Y           Z
 ---------------------------------------------------------------------
      1          6           0        0.913186    0.993129   -0.037156
      2          6           0        1.401065   -0.245744    0.009543
      3          6           0        0.436311   -1.239887   -0.000738
      4          6           0       -0.908250   -0.998105   -0.013202
      5          6           0       -1.402795    0.259214    0.031769
      6          6           0       -0.459142    1.266173   -0.018230
      7          1           0        1.561615    1.785054   -0.030392
      8          1           0       -0.622010    2.442588    0.070315
      9          1           0       -2.511916    0.360655    0.082621
     10          1           0       -1.638877   -1.887494   -0.120275
     11          1           0        0.846593   -2.364397    0.024142
     12          1           0        2.482344   -0.545091    0.141678
 ---------------------------------------------------------------------

 SCF Done:  E(RB3LYP) =  -232.221248624     A.U. after   12 cycles

 Excitation energies and oscillator strengths:

 Excited State   1:      Singlet-A      5.7448 eV  215.82 nm  f=0.0044  <S**2>=0.000
      20 -> 22        -0.39065
      20 -> 23         0.22158
      21 -> 22         0.31652
      21 -> 23         0.44453
 This state for optimization and/or second-order correction.
 Total Energy, E(TD-HF/TD-DFT) =  -232.010129803
 Copying the excited state density for this state as the 1-particle RhoCI density.

 The electronic state is 1-A.
 Alpha  occ. eigenvalues --  -10.19676 -10.19092 -10.19073 -10.18735 -10.18590
 Alpha  occ. eigenvalues --  -10.17531  -0.86361  -0.75799  -0.73408  -0.59992
 Alpha  occ. eigenvalues --   -0.59429  -0.51681  -0.44953  -0.44253  -0.42664
 Alpha  occ. eigenvalues --   -0.39323  -0.37250  -0.34026  -0.32491  -0.26019
 Alpha  occ. eigenvalues --   -0.24461
 Alpha virt. eigenvalues --    0.00226   0.01007   0.06911   0.12095   0.12845
 Alpha virt. eigenvalues --    0.16750   0.17357   0.17782   0.19651   0.29390
 Alpha virt. eigenvalues --    0.30990   0.33158   0.34002   0.45999   0.52140

 Mulliken charges:
               1
     1  C   -0.077390
     2  C   -0.064346
     3  C   -0.091008
     4  C   -0.075323
     5  C   -0.084880
     6  C   -0.091703
     7  H    0.077271
     8  H    0.075316
     9  H    0.092965
    10  H    0.081034
    11  H    0.066670
    12  H    0.091396
 Sum of Mulliken charges =  -0.00000

 Dipole moment (field-independent basis, Debye):
    X=              0.0948    Y=              0.0273    Z=              0.1033  Tot=              0.1429
 Quadrupole moment (field-independent basis, Debye-Ang):
   XX=            -31.2757   YY=            -32.6134   ZZ=            -38.4170
   XY=              0.3743   XZ=              0.2173   YZ=              0.1913

 Normal termination of Gaussian 16 at Fri Nov 10 17:30:49 2023.
