 Gaussian 16, Revision B.01,
 Gaussian 16:  EM64L-G16RevB.01 20-Dec-2017

 ---------------------------------
 # TD=(NStates=1) B3LYP/6-31G(d,p)
 ---------------------------------

 -------
 ABSSPCT
 -------
 Symbolic Z-matrix:
 Charge =  0 Multiplicity = 1

                         Standard orientation:
 ---------------------------------------------------------------------
 Center     Atomic      Atomic             Coordinates (Angstroms)
 Number     Number       Type             X           Y           Z
 ---------------------------------------------------------------------
      1          6           0        0.977664    1.026161   -0.059768
      2          6           0        1.426564   -0.374479   -0.022752
      3          6           0        0.372675   -1.276215    0.032191
      4          6           0       -0.924057   -1.018710   -0.029923
      5          6           0       -1.379283    0.320563    0.031741
      6          6           0       -0.425705    1.322751   -0.001274
      7          1           0        1.628162    1.824676    0.102179
      8          1           0       -0.779808    2.384914    0.105121
      9          1           0       -2.556179    0.343712   -0.014606
     10          1           0       -1.731351   -1.724597   -0.076279
     11          1           0        0.625378   -2.289421    0.077592
     12          1           0        2.526656   -0.539712    0.104708
 ---------------------------------------------------------------------

 SCF Done:  E(RB3LYP) =  -232.221402058     A.U. after   13 cycles

 Excitation energies and oscillator strengths:

 Excited State   1:      Singlet-A      5.4034 eV  229.46 nm  f=0.0027  <S**2>=0.000
      20 -> 22         0.52758
      21 -> 22         0.12190
      21 -> 23        -0.44855
 This state for optimization and/or second-order correction.
 Total Energy, E(TD-HF/TD-DFT) =  -232.022832585
 Copying the excited state density for this state as the 1-particle RhoCI density.

 The electronic state is 1-A.
 Alpha  occ. eigenvalues --  -10.20157 -10.19562 -10.19506 -10.19460 -10.17929
 Alpha  occ. eigenvalues --  -10.17748  -0.84715  -0.74254  -0.73612  -0.59995
 Alpha  occ. eigenvalues --   -0.59568  -0.51537  -0.45769  -0.44592  -0.41187
 Alpha  occ. eigenvalues --   -0.40539  -0.35937  -0.35527  -0.31587  -0.25103
 Alpha  occ. eigenvalues --   -0.24164
 Alpha virt. eigenvalues --   -0.01159   0.00920   0.08121   0.12841   0.14407
 Alpha virt. eigenvalues --    0.15472   0.17060   0.18357   0.19750   0.27698
 Alpha virt. eigenvalues --    0.29164   0.30562   0.34473   0.46420   0.51225

 Mulliken charges:
               1
     1  C   -0.100631
     2  C   -0.092989
     3  C   -0.078146
     4  C   -0.062732
     5  C   -0.083394
     6  C   -0.096883
     7  H    0.088220
     8  H    0.083507
     9  H    0.083007
    10  H    0.084904
    11  H    0.074484
    12  H    0.100652
 Sum of Mulliken charges =  -0.00000

 Dipole moment (field-independent basis, Debye):
    X=              0.0252    Y=             -0.0855    Z=              0.1954  Tot=              0.2147
 Quadrupole moment (field-independent basis, Debye-Ang):
   XX=            -30.8064   YY=            -32.3936   ZZ=            -38.6005
   XY=              0.5956   XZ=              0.5137   YZ=              0.2961

 Normal termination of Gaussian 16 at Fri Nov 10 17:44:37 2023.
