 Gaussian 16, Revision B.01,
 Gaussian 16:  EM64L-G16RevB.01 20-Dec-2017

 ---------------------------------
 # TD=(NStates=1) B3LYP/6-31G(d,p)
 ---------------------------------

 -------
 ABSSPCT
 -------
 Symbolic Z-matrix:
 Charge =  0 Multiplicity = 1

                         Standard orientation:
 ---------------------------------------------------------------------
 Center     Atomic      Atomic             Coordinates (Angstroms)
 Number     Number       Type             X           Y           Z
 ---------------------------------------------------------------------
      1          6           0        1.331049    0.359108   -0.021819
      2          6           0        1.037277   -0.973427   -0.008017
      3          6           0       -0.302565   -1.402911   -0.005082
      4          6           0       -1.423497   -0.400015    0.022180
      5          6           0       -0.998102    1.001261   -0.074464
      6          6           0        0.380097    1.379144    0.025822
      7          1           0        2.602589    0.550033    0.070232
      8          1           0        0.633246    2.533448    0.081501
      9          1           0       -1.915570    1.665184    0.123752
     10          1           0       -2.386716   -0.476914    0.011036
     11          1           0       -0.744804   -2.423088    0.086141
     12          1           0        1.665697   -1.627623   -0.004381
 ---------------------------------------------------------------------

 SCF Done:  E(RB3LYP) =  -232.157612918     A.U. after   13 cycles

 Excitation energies and oscillator strengths:

 Excited State   1:      Singlet-A      5.2040 eV  238.25 nm  f=0.0001  <S**2>=0.000
      20 -> 22        -0.48960
      21 -> 23         0.50004
 This state for optimization and/or second-order correction.
 Total Energy, E(TD-HF/TD-DFT) =  -231.966369365
 Copying the excited state density for this state as the 1-particle RhoCI density.

 The electronic state is 1-A.
 Alpha  occ. eigenvalues --  -10.20915 -10.20831 -10.20579 -10.20299 -10.19157
 Alpha  occ. eigenvalues --  -10.17692  -0.83891  -0.74614  -0.72943  -0.60499
 Alpha  occ. eigenvalues --   -0.59541  -0.51930  -0.46082  -0.43696  -0.42145
 Alpha  occ. eigenvalues --   -0.40506  -0.35496  -0.33470  -0.32159  -0.24894
 Alpha  occ. eigenvalues --   -0.24153
 Alpha virt. eigenvalues --   -0.01153  -0.00532   0.06407   0.12662   0.13338
 Alpha virt. eigenvalues --    0.14242   0.14730   0.19366   0.19564   0.26148
 Alpha virt. eigenvalues --    0.27921   0.30755   0.31497   0.46316   0.48622

 Mulliken charges:
               1
     1  C   -0.079054
     2  C   -0.010081
     3  C   -0.109992
     4  C   -0.069900
     5  C   -0.105768
     6  C   -0.094822
     7  H    0.061362
     8  H    0.093190
     9  H    0.081926
    10  H    0.080974
    11  H    0.091398
    12  H    0.060766
 Sum of Mulliken charges =  -0.00000

 Dipole moment (field-independent basis, Debye):
    X=             -0.1979    Y=             -0.1914    Z=              0.2165  Tot=              0.3502
 Quadrupole moment (field-independent basis, Debye-Ang):
   XX=            -31.1914   YY=            -32.0866   ZZ=            -38.9157
   XY=             -0.3129   XZ=             -0.1456   YZ=              0.1740

 Normal termination of Gaussian 16 at Fri Nov 10 19:31:34 2023.
