 Gaussian 16, Revision B.01,
 Gaussian 16:  EM64L-G16RevB.01 20-Dec-2017

 ---------------------------------
 # TD=(NStates=1) B3LYP/6-31G(d,p)
 ---------------------------------

 -------
 ABSSPCT
 -------
 Symbolic Z-matrix:
 Charge =  0 Multiplicity = 1

                         Standard orientation:
 ---------------------------------------------------------------------
 Center     Atomic      Atomic             Coordinates (Angstroms)
 Number     Number       Type             X           Y           Z
 ---------------------------------------------------------------------
      1          6           0       -0.241298   -1.277952   -0.000295
      2          6           0        1.081775   -0.850807    0.074082
      3          6           0        1.294061    0.388509   -0.052617
      4          6           0        0.286318    1.375959   -0.015414
      5          6           0       -1.141668    0.875121    0.048383
      6          6           0       -1.307094   -0.525838   -0.003711
      7          1           0       -0.280674   -2.460197    0.040470
      8          1           0       -2.316610   -0.965363   -0.153656
      9          1           0       -1.929139    1.549271   -0.177065
     10          1           0        0.401730    2.532472    0.226189
     11          1           0        2.333901    0.840033   -0.143609
     12          1           0        1.958225   -1.406165   -0.094891
 ---------------------------------------------------------------------

 SCF Done:  E(RB3LYP) =  -232.187338557     A.U. after   14 cycles

 Excitation energies and oscillator strengths:

 Excited State   1:      Singlet-A      5.5261 eV  224.36 nm  f=0.0080  <S**2>=0.000
      20 -> 22         0.48784
      21 -> 22        -0.21639
      21 -> 23         0.45604
 This state for optimization and/or second-order correction.
 Total Energy, E(TD-HF/TD-DFT) =  -231.984257337
 Copying the excited state density for this state as the 1-particle RhoCI density.

 The electronic state is 1-A.
 Alpha  occ. eigenvalues --  -10.20611 -10.19740 -10.18932 -10.18641 -10.18193
 Alpha  occ. eigenvalues --  -10.17163  -0.86263  -0.76281  -0.72559  -0.60812
 Alpha  occ. eigenvalues --   -0.58677  -0.51673  -0.45757  -0.44105  -0.42851
 Alpha  occ. eigenvalues --   -0.39172  -0.37395  -0.34061  -0.31360  -0.26533
 Alpha  occ. eigenvalues --   -0.23594
 Alpha virt. eigenvalues --   -0.01785   0.01619   0.07806   0.12015   0.13626
 Alpha virt. eigenvalues --    0.16286   0.16608   0.18145   0.19164   0.26804
 Alpha virt. eigenvalues --    0.30425   0.30870   0.35869   0.45073   0.50122

 Mulliken charges:
               1
     1  C   -0.090932
     2  C   -0.051968
     3  C   -0.070842
     4  C   -0.111410
     5  C   -0.116909
     6  C   -0.062565
     7  H    0.067366
     8  H    0.089546
     9  H    0.093997
    10  H    0.090372
    11  H    0.074178
    12  H    0.089166
 Sum of Mulliken charges =  -0.00000

 Dipole moment (field-independent basis, Debye):
    X=              0.0306    Y=              0.0335    Z=             -0.1835  Tot=              0.1891
 Quadrupole moment (field-independent basis, Debye-Ang):
   XX=            -31.5542   YY=            -32.4530   ZZ=            -38.3323
   XY=             -0.4105   XZ=              0.2377   YZ=              0.3123

 Normal termination of Gaussian 16 at Fri Nov 10 18:30:02 2023.
