 Gaussian 16, Revision B.01,
 Gaussian 16:  EM64L-G16RevB.01 20-Dec-2017

 ---------------------------------
 # TD=(NStates=1) B3LYP/6-31G(d,p)
 ---------------------------------

 -------
 ABSSPCT
 -------
 Symbolic Z-matrix:
 Charge =  0 Multiplicity = 1

                         Standard orientation:
 ---------------------------------------------------------------------
 Center     Atomic      Atomic             Coordinates (Angstroms)
 Number     Number       Type             X           Y           Z
 ---------------------------------------------------------------------
      1          6           0       -0.736207   -1.144487   -0.061041
      2          6           0       -1.481338    0.041135   -0.057339
      3          6           0       -0.632368    1.206748    0.098427
      4          6           0        0.734519    1.164463   -0.090072
      5          6           0        1.480219   -0.113253    0.045050
      6          6           0        0.652425   -1.175855    0.034950
      7          1           0       -1.416176   -1.894970    0.170180
      8          1           0        1.074819   -2.176437    0.138174
      9          1           0        2.540735   -0.033374   -0.145447
     10          1           0        1.344584    2.005736   -0.118023
     11          1           0       -1.131509    2.174955    0.299963
     12          1           0       -2.515960    0.051589   -0.164696
 ---------------------------------------------------------------------

 SCF Done:  E(RB3LYP) =  -232.213103059     A.U. after   13 cycles

 Excitation energies and oscillator strengths:

 Excited State   1:      Singlet-A      5.1430 eV  241.07 nm  f=0.0094  <S**2>=0.000
      20 -> 22        -0.30773
      20 -> 23        -0.28736
      21 -> 22         0.49527
      21 -> 23        -0.27520
 This state for optimization and/or second-order correction.
 Total Energy, E(TD-HF/TD-DFT) =  -232.024102144
 Copying the excited state density for this state as the 1-particle RhoCI density.

 The electronic state is 1-A.
 Alpha  occ. eigenvalues --  -10.19267 -10.19202 -10.19077 -10.18685 -10.18488
 Alpha  occ. eigenvalues --  -10.18033  -0.84448  -0.74517  -0.73567  -0.60323
 Alpha  occ. eigenvalues --   -0.59636  -0.51640  -0.47229  -0.45052  -0.41638
 Alpha  occ. eigenvalues --   -0.39835  -0.37336  -0.34586  -0.31244  -0.24746
 Alpha  occ. eigenvalues --   -0.23774
 Alpha virt. eigenvalues --   -0.01402   0.00439   0.09866   0.13210   0.15083
 Alpha virt. eigenvalues --    0.15654   0.17139   0.19124   0.19799   0.26861
 Alpha virt. eigenvalues --    0.29376   0.30673   0.34005   0.47017   0.49648

 Mulliken charges:
               1
     1  C   -0.076040
     2  C   -0.092485
     3  C   -0.084032
     4  C   -0.095005
     5  C   -0.087382
     6  C   -0.082158
     7  H    0.085448
     8  H    0.075880
     9  H    0.099108
    10  H    0.082509
    11  H    0.077131
    12  H    0.097026
 Sum of Mulliken charges =  -0.00000

 Dipole moment (field-independent basis, Debye):
    X=             -0.1234    Y=              0.1025    Z=              0.0934  Tot=              0.1856
 Quadrupole moment (field-independent basis, Debye-Ang):
   XX=            -30.2256   YY=            -33.0171   ZZ=            -38.3285
   XY=              0.5784   XZ=             -0.4963   YZ=             -0.2276

 Normal termination of Gaussian 16 at Fri Nov 10 18:55:37 2023.
