 Gaussian 16, Revision B.01,
 Gaussian 16:  EM64L-G16RevB.01 20-Dec-2017

 ---------------------------------
 # TD=(NStates=1) B3LYP/6-31G(d,p)
 ---------------------------------

 -------
 ABSSPCT
 -------
 Symbolic Z-matrix:
 Charge =  0 Multiplicity = 1

                         Standard orientation:
 ---------------------------------------------------------------------
 Center     Atomic      Atomic             Coordinates (Angstroms)
 Number     Number       Type             X           Y           Z
 ---------------------------------------------------------------------
      1          6           0       -1.417059    0.183909   -0.098442
      2          6           0       -0.536770    1.273198    0.095838
      3          6           0        0.842459    1.114892   -0.071779
      4          6           0        1.427841   -0.191804   -0.066984
      5          6           0        0.578502   -1.256108    0.045303
      6          6           0       -0.872067   -1.129394    0.021339
      7          1           0       -2.508326    0.269834    0.163523
      8          1           0       -1.808390   -1.847302   -0.086573
      9          1           0        1.100771   -2.344981    0.045745
     10          1           0        2.498106   -0.309433    0.215483
     11          1           0        1.485259    1.954251    0.053303
     12          1           0       -0.904858    2.309468    0.056872
 ---------------------------------------------------------------------

 SCF Done:  E(RB3LYP) =  -232.209425679     A.U. after   13 cycles

 Excitation energies and oscillator strengths:

 Excited State   1:      Singlet-A      5.2063 eV  238.14 nm  f=0.0038  <S**2>=0.000
      20 -> 22         0.37854
      20 -> 23        -0.27057
      21 -> 22         0.37604
      21 -> 23         0.37639
 This state for optimization and/or second-order correction.
 Total Energy, E(TD-HF/TD-DFT) =  -232.018099147
 Copying the excited state density for this state as the 1-particle RhoCI density.

 The electronic state is 1-A.
 Alpha  occ. eigenvalues --  -10.21012 -10.20891 -10.19665 -10.19594 -10.19290
 Alpha  occ. eigenvalues --  -10.19158  -0.84249  -0.74279  -0.73116  -0.59569
 Alpha  occ. eigenvalues --   -0.58789  -0.50709  -0.45120  -0.43903  -0.41162
 Alpha  occ. eigenvalues --   -0.39781  -0.36488  -0.33918  -0.31872  -0.25324
 Alpha  occ. eigenvalues --   -0.24339
 Alpha virt. eigenvalues --   -0.01591  -0.00534   0.07185   0.11395   0.13178
 Alpha virt. eigenvalues --    0.13923   0.15608   0.17836   0.18976   0.27516
 Alpha virt. eigenvalues --    0.28725   0.30001   0.32186   0.45530   0.46748

 Mulliken charges:
               1
     1  C   -0.100836
     2  C   -0.078956
     3  C   -0.092476
     4  C   -0.076502
     5  C   -0.094855
     6  C   -0.089181
     7  H    0.089450
     8  H    0.096937
     9  H    0.075416
    10  H    0.098765
    11  H    0.088074
    12  H    0.084164
 Sum of Mulliken charges =  -0.00000

 Dipole moment (field-independent basis, Debye):
    X=              0.0336    Y=              0.1693    Z=              0.2755  Tot=              0.3251
 Quadrupole moment (field-independent basis, Debye-Ang):
   XX=            -31.0708   YY=            -32.8636   ZZ=            -38.8797
   XY=              0.3979   XZ=              0.3084   YZ=              0.2205

 Normal termination of Gaussian 16 at Fri Nov 10 16:31:25 2023.
