 Gaussian 16, Revision B.01,
 Gaussian 16:  EM64L-G16RevB.01 20-Dec-2017

 ---------------------------------
 # TD=(NStates=1) B3LYP/6-31G(d,p)
 ---------------------------------

 -------
 ABSSPCT
 -------
 Symbolic Z-matrix:
 Charge =  0 Multiplicity = 1

                         Standard orientation:
 ---------------------------------------------------------------------
 Center     Atomic      Atomic             Coordinates (Angstroms)
 Number     Number       Type             X           Y           Z
 ---------------------------------------------------------------------
      1          6           0        0.137249    1.352430    0.037956
      2          6           0       -1.196823    0.792434   -0.045761
      3          6           0       -1.295522   -0.622263   -0.037360
      4          6           0       -0.085702   -1.328754    0.056635
      5          6           0        1.165866   -0.783149   -0.038142
      6          6           0        1.300185    0.607046    0.006751
      7          1           0        0.272536    2.439666    0.207519
      8          1           0        2.212234    1.013591   -0.143642
      9          1           0        2.072016   -1.542837   -0.063361
     10          1           0       -0.293052   -2.337116    0.132193
     11          1           0       -2.253140   -1.056881    0.046645
     12          1           0       -2.162109    1.377108   -0.059822
 ---------------------------------------------------------------------

 SCF Done:  E(RB3LYP) =  -232.227830343     A.U. after   13 cycles

 Excitation energies and oscillator strengths:

 Excited State   1:      Singlet-A      5.3873 eV  230.14 nm  f=0.0028  <S**2>=0.000
      20 -> 22        -0.22672
      20 -> 23         0.40061
      21 -> 22         0.48621
      21 -> 23         0.22651
 This state for optimization and/or second-order correction.
 Total Energy, E(TD-HF/TD-DFT) =  -232.029851744
 Copying the excited state density for this state as the 1-particle RhoCI density.

 The electronic state is 1-A.
 Alpha  occ. eigenvalues --  -10.19936 -10.19510 -10.19422 -10.18686 -10.18246
 Alpha  occ. eigenvalues --  -10.17774  -0.84595  -0.74751  -0.73205  -0.60051
 Alpha  occ. eigenvalues --   -0.59686  -0.51586  -0.46696  -0.43701  -0.42249
 Alpha  occ. eigenvalues --   -0.40163  -0.36082  -0.35071  -0.32303  -0.24893
 Alpha  occ. eigenvalues --   -0.24216
 Alpha virt. eigenvalues --   -0.00401   0.00209   0.08850   0.13031   0.14844
 Alpha virt. eigenvalues --    0.15721   0.16807   0.18622   0.19774   0.29157
 Alpha virt. eigenvalues --    0.29544   0.30945   0.32442   0.46662   0.51717

 Mulliken charges:
               1
     1  C   -0.099836
     2  C   -0.091949
     3  C   -0.086815
     4  C   -0.068473
     5  C   -0.087876
     6  C   -0.070242
     7  H    0.081097
     8  H    0.088524
     9  H    0.081096
    10  H    0.075895
    11  H    0.089981
    12  H    0.088600
 Sum of Mulliken charges =  -0.00000

 Dipole moment (field-independent basis, Debye):
    X=             -0.1061    Y=             -0.0580    Z=              0.0685  Tot=              0.1389
 Quadrupole moment (field-independent basis, Debye-Ang):
   XX=            -30.8110   YY=            -32.2901   ZZ=            -38.5183
   XY=              0.3790   XZ=             -0.3635   YZ=             -0.0050

 Normal termination of Gaussian 16 at Fri Nov 10 19:31:34 2023.
