 Gaussian 16, Revision B.01,
 Gaussian 16:  EM64L-G16RevB.01 20-Dec-2017

 ---------------------------------
 # TD=(NStates=1) B3LYP/6-31G(d,p)
 ---------------------------------

 -------
 ABSSPCT
 -------
 Symbolic Z-matrix:
 Charge =  0 Multiplicity = 1

                         Standard orientation:
 ---------------------------------------------------------------------
 Center     Atomic      Atomic             Coordinates (Angstroms)
 Number     Number       Type             X           Y           Z
 ---------------------------------------------------------------------
      1          6           0        1.233852    0.632389   -0.089481
      2          6           0        0.138352    1.346731   -0.001195
      3          6           0       -1.121058    0.753354    0.008535
      4          6           0       -1.289848   -0.601292   -0.022043
      5          6           0       -0.111870   -1.334625    0.017814
      6          6           0        1.147630   -0.819944    0.011414
      7          1           0        2.269109    0.945609    0.169634
      8          1           0        2.011838   -1.512469    0.101441
      9          1           0       -0.192171   -2.425267   -0.056863
     10          1           0       -2.410675   -0.756716    0.104456
     11          1           0       -1.989187    1.426801   -0.039864
     12          1           0        0.328741    2.462369    0.170936
 ---------------------------------------------------------------------

 SCF Done:  E(RB3LYP) =  -232.215767786     A.U. after   13 cycles

 Excitation energies and oscillator strengths:

 Excited State   1:      Singlet-A      5.6112 eV  220.96 nm  f=0.0047  <S**2>=0.000
      20 -> 22         0.42833
      20 -> 23        -0.20545
      21 -> 22        -0.33290
      21 -> 23        -0.40312
 This state for optimization and/or second-order correction.
 Total Energy, E(TD-HF/TD-DFT) =  -232.009560354
 Copying the excited state density for this state as the 1-particle RhoCI density.

 The electronic state is 1-A.
 Alpha  occ. eigenvalues --  -10.19179 -10.19138 -10.18655 -10.18601 -10.18452
 Alpha  occ. eigenvalues --  -10.18398  -0.85854  -0.75005  -0.74199  -0.59838
 Alpha  occ. eigenvalues --   -0.59530  -0.51674  -0.46297  -0.43616  -0.41200
 Alpha  occ. eigenvalues --   -0.40388  -0.36968  -0.34735  -0.31361  -0.25680
 Alpha  occ. eigenvalues --   -0.24519
 Alpha virt. eigenvalues --   -0.00516   0.01044   0.07576   0.12498   0.13675
 Alpha virt. eigenvalues --    0.15955   0.16964   0.18629   0.19031   0.28314
 Alpha virt. eigenvalues --    0.29918   0.32888   0.34809   0.44801   0.49934

 Mulliken charges:
               1
     1  C   -0.095153
     2  C   -0.066649
     3  C   -0.097524
     4  C   -0.063628
     5  C   -0.105328
     6  C   -0.086530
     7  H    0.085134
     8  H    0.092947
     9  H    0.075470
    10  H    0.098957
    11  H    0.081045
    12  H    0.081259
 Sum of Mulliken charges =  -0.00000

 Dipole moment (field-independent basis, Debye):
    X=             -0.0277    Y=              0.0198    Z=              0.2698  Tot=              0.2720
 Quadrupole moment (field-independent basis, Debye-Ang):
   XX=            -31.1753   YY=            -32.7644   ZZ=            -38.3554
   XY=             -0.6420   XZ=              0.3989   YZ=              0.3199

 Normal termination of Gaussian 16 at Fri Nov 10 17:13:08 2023.
