 Gaussian 16, Revision B.01,
 Gaussian 16:  EM64L-G16RevB.01 20-Dec-2017

 ---------------------------------
 # TD=(NStates=1) B3LYP/6-31G(d,p)
 ---------------------------------

 -------
 ABSSPCT
 -------
 Symbolic Z-matrix:
 Charge =  0 Multiplicity = 1

                         Standard orientation:
 ---------------------------------------------------------------------
 Center     Atomic      Atomic             Coordinates (Angstroms)
 Number     Number       Type             X           Y           Z
 ---------------------------------------------------------------------
      1          6           0        0.465238   -1.272897   -0.034624
      2          6           0        1.410119   -0.288364    0.015732
      3          6           0        0.938253    1.030723    0.029411
      4          6           0       -0.417433    1.306642   -0.074407
      5          6           0       -1.443348    0.227647    0.011863
      6          6           0       -0.959546   -1.001373   -0.059546
      7          1           0        0.768188   -2.443254   -0.007513
      8          1           0       -1.645011   -1.817815    0.197750
      9          1           0       -2.494865    0.519761    0.321130
     10          1           0       -0.887357    2.396598   -0.048184
     11          1           0        1.781164    1.860201    0.079169
     12          1           0        2.518184   -0.529763    0.127077
 ---------------------------------------------------------------------

 SCF Done:  E(RB3LYP) =  -232.213324355     A.U. after   13 cycles

 Excitation energies and oscillator strengths:

 Excited State   1:      Singlet-A      5.4667 eV  226.80 nm  f=0.0021  <S**2>=0.000
      20 -> 22        -0.46387
      21 -> 22         0.15953
      21 -> 23         0.49993
 This state for optimization and/or second-order correction.
 Total Energy, E(TD-HF/TD-DFT) =  -232.012428082
 Copying the excited state density for this state as the 1-particle RhoCI density.

 The electronic state is 1-A.
 Alpha  occ. eigenvalues --  -10.20565 -10.20314 -10.20204 -10.19739 -10.19592
 Alpha  occ. eigenvalues --  -10.18823  -0.84752  -0.75136  -0.72398  -0.59222
 Alpha  occ. eigenvalues --   -0.58621  -0.50435  -0.44667  -0.43905  -0.42199
 Alpha  occ. eigenvalues --   -0.39195  -0.36213  -0.34126  -0.32022  -0.25858
 Alpha  occ. eigenvalues --   -0.23992
 Alpha virt. eigenvalues --   -0.00913   0.00510   0.06500   0.11845   0.12101
 Alpha virt. eigenvalues --    0.14273   0.15762   0.16817   0.18646   0.26490
 Alpha virt. eigenvalues --    0.29313   0.31992   0.33560   0.46153   0.51344

 Mulliken charges:
               1
     1  C   -0.089977
     2  C   -0.073182
     3  C   -0.081348
     4  C   -0.106579
     5  C   -0.082150
     6  C   -0.082475
     7  H    0.074468
     8  H    0.084567
     9  H    0.099682
    10  H    0.078494
    11  H    0.083542
    12  H    0.094960
 Sum of Mulliken charges =  -0.00000

 Dipole moment (field-independent basis, Debye):
    X=             -0.0275    Y=             -0.0208    Z=              0.4119  Tot=              0.4133
 Quadrupole moment (field-independent basis, Debye-Ang):
   XX=            -31.0305   YY=            -32.8432   ZZ=            -38.8257
   XY=             -0.2250   XZ=             -0.5490   YZ=             -0.1510

 Normal termination of Gaussian 16 at Fri Nov 10 16:05:18 2023.
