 Gaussian 16, Revision B.01,
 Gaussian 16:  EM64L-G16RevB.01 20-Dec-2017

 ---------------------------------
 # TD=(NStates=1) B3LYP/6-31G(d,p)
 ---------------------------------

 -------
 ABSSPCT
 -------
 Symbolic Z-matrix:
 Charge =  0 Multiplicity = 1

                         Standard orientation:
 ---------------------------------------------------------------------
 Center     Atomic      Atomic             Coordinates (Angstroms)
 Number     Number       Type             X           Y           Z
 ---------------------------------------------------------------------
      1          6           0        1.243327    0.678999    0.019716
      2          6           0        0.006255    1.389536   -0.000143
      3          6           0       -1.187411    0.697084   -0.034329
      4          6           0       -1.236444   -0.674567    0.027362
      5          6           0       -0.010036   -1.393623   -0.027625
      6          6           0        1.195096   -0.701996   -0.056782
      7          1           0        2.272390    0.925292    0.233315
      8          1           0        2.009521   -1.254658    0.065132
      9          1           0       -0.149251   -2.477292   -0.078519
     10          1           0       -2.204045   -1.164297    0.365104
     11          1           0       -2.055496    1.403193   -0.169215
     12          1           0        0.062156    2.595168    0.014986
 ---------------------------------------------------------------------

 SCF Done:  E(RB3LYP) =  -232.216433396     A.U. after   13 cycles

 Excitation energies and oscillator strengths:

 Excited State   1:      Singlet-A      5.3950 eV  229.81 nm  f=0.0007  <S**2>=0.000
      20 -> 22         0.50943
      21 -> 22        -0.12151
      21 -> 23         0.46707
 This state for optimization and/or second-order correction.
 Total Energy, E(TD-HF/TD-DFT) =  -232.018172155
 Copying the excited state density for this state as the 1-particle RhoCI density.

 The electronic state is 1-A.
 Alpha  occ. eigenvalues --  -10.20294 -10.19411 -10.19059 -10.19029 -10.18934
 Alpha  occ. eigenvalues --  -10.17565  -0.84929  -0.75003  -0.73353  -0.60185
 Alpha  occ. eigenvalues --   -0.59475  -0.51465  -0.46508  -0.42964  -0.41794
 Alpha  occ. eigenvalues --   -0.40611  -0.36781  -0.33252  -0.33132  -0.25090
 Alpha  occ. eigenvalues --   -0.24231
 Alpha virt. eigenvalues --   -0.00851   0.00504   0.08128   0.12792   0.13552
 Alpha virt. eigenvalues --    0.15999   0.16366   0.17195   0.20195   0.29265
 Alpha virt. eigenvalues --    0.29897   0.31273   0.32934   0.45517   0.51724

 Mulliken charges:
               1
     1  C   -0.077420
     2  C   -0.102291
     3  C   -0.071045
     4  C   -0.100590
     5  C   -0.090417
     6  C   -0.074555
     7  H    0.091270
     8  H    0.079024
     9  H    0.087065
    10  H    0.092013
    11  H    0.087387
    12  H    0.079560
 Sum of Mulliken charges =  -0.00000

 Dipole moment (field-independent basis, Debye):
    X=              0.0868    Y=             -0.1561    Z=              0.2707  Tot=              0.3243
 Quadrupole moment (field-independent basis, Debye-Ang):
   XX=            -31.6218   YY=            -32.0510   ZZ=            -38.4287
   XY=             -0.2626   XZ=              0.2063   YZ=             -0.2661

 Normal termination of Gaussian 16 at Fri Nov 10 16:36:13 2023.
