 Gaussian 16, Revision B.01,
 Gaussian 16:  EM64L-G16RevB.01 20-Dec-2017

 ---------------------------------
 # TD=(NStates=1) B3LYP/6-31G(d,p)
 ---------------------------------

 -------
 ABSSPCT
 -------
 Symbolic Z-matrix:
 Charge =  0 Multiplicity = 1

                         Standard orientation:
 ---------------------------------------------------------------------
 Center     Atomic      Atomic             Coordinates (Angstroms)
 Number     Number       Type             X           Y           Z
 ---------------------------------------------------------------------
      1          6           0       -0.485781    1.301089   -0.064322
      2          6           0       -1.373056    0.281833    0.056566
      3          6           0       -0.904012   -0.984007   -0.015839
      4          6           0        0.422672   -1.294345   -0.009449
      5          6           0        1.413880   -0.308078    0.086689
      6          6           0        0.935175    1.066162   -0.074969
      7          1           0       -0.869274    2.322449    0.118652
      8          1           0        1.743224    1.810583    0.033702
      9          1           0        2.499071   -0.524739    0.086874
     10          1           0        0.685936   -2.432736   -0.144865
     11          1           0       -1.697715   -1.692130   -0.126180
     12          1           0       -2.414505    0.140648    0.159760
 ---------------------------------------------------------------------

 SCF Done:  E(RB3LYP) =  -232.215902142     A.U. after   12 cycles

 Excitation energies and oscillator strengths:

 Excited State   1:      Singlet-A      5.4121 eV  229.09 nm  f=0.0008  <S**2>=0.000
      20 -> 22        -0.45135
      20 -> 23         0.18162
      21 -> 22         0.23061
      21 -> 23         0.45779
 This state for optimization and/or second-order correction.
 Total Energy, E(TD-HF/TD-DFT) =  -232.017012045
 Copying the excited state density for this state as the 1-particle RhoCI density.

 The electronic state is 1-A.
 Alpha  occ. eigenvalues --  -10.20311 -10.19916 -10.19557 -10.19323 -10.17674
 Alpha  occ. eigenvalues --  -10.17364  -0.85235  -0.74739  -0.73515  -0.60666
 Alpha  occ. eigenvalues --   -0.59241  -0.51416  -0.45431  -0.44812  -0.41255
 Alpha  occ. eigenvalues --   -0.40280  -0.36204  -0.35144  -0.31856  -0.25074
 Alpha  occ. eigenvalues --   -0.24347
 Alpha virt. eigenvalues --   -0.00505   0.00112   0.08138   0.13228   0.13743
 Alpha virt. eigenvalues --    0.15286   0.16780   0.17343   0.21203   0.27862
 Alpha virt. eigenvalues --    0.29457   0.30701   0.34546   0.46208   0.51354

 Mulliken charges:
               1
     1  C   -0.117603
     2  C   -0.032913
     3  C   -0.082580
     4  C   -0.076551
     5  C   -0.099490
     6  C   -0.103323
     7  H    0.085427
     8  H    0.094508
     9  H    0.094599
    10  H    0.073373
    11  H    0.078291
    12  H    0.086263
 Sum of Mulliken charges =  -0.00000

 Dipole moment (field-independent basis, Debye):
    X=             -0.0529    Y=             -0.1007    Z=              0.1031  Tot=              0.1536
 Quadrupole moment (field-independent basis, Debye-Ang):
   XX=            -30.7533   YY=            -32.8555   ZZ=            -38.5186
   XY=              0.6958   XZ=             -0.0597   YZ=              0.6767

 Normal termination of Gaussian 16 at Fri Nov 10 19:23:24 2023.
