 Gaussian 16, Revision B.01,
 Gaussian 16:  EM64L-G16RevB.01 20-Dec-2017

 ---------------------------------
 # TD=(NStates=1) B3LYP/6-31G(d,p)
 ---------------------------------

 -------
 ABSSPCT
 -------
 Symbolic Z-matrix:
 Charge =  0 Multiplicity = 1

                         Standard orientation:
 ---------------------------------------------------------------------
 Center     Atomic      Atomic             Coordinates (Angstroms)
 Number     Number       Type             X           Y           Z
 ---------------------------------------------------------------------
      1          6           0       -1.255938   -0.672246    0.034408
      2          6           0       -1.247594    0.698212    0.014106
      3          6           0        0.020326    1.370205   -0.007694
      4          6           0        1.305276    0.680939    0.020014
      5          6           0        1.230677   -0.716328    0.005209
      6          6           0       -0.053078   -1.311404   -0.110247
      7          1           0       -2.194511   -1.352358    0.078914
      8          1           0        0.135767   -2.364146    0.212291
      9          1           0        2.162010   -1.317715    0.054860
     10          1           0        2.181785    1.195330    0.001175
     11          1           0       -0.176202    2.377670   -0.007313
     12          1           0       -2.106862    1.164948   -0.074704
 ---------------------------------------------------------------------

 SCF Done:  E(RB3LYP) =  -232.208365956     A.U. after   13 cycles

 Excitation energies and oscillator strengths:

 Excited State   1:      Singlet-A      5.3090 eV  233.54 nm  f=0.0007  <S**2>=0.000
      20 -> 22        -0.47649
      21 -> 23         0.51433
 This state for optimization and/or second-order correction.
 Total Energy, E(TD-HF/TD-DFT) =  -232.013264032
 Copying the excited state density for this state as the 1-particle RhoCI density.

 The electronic state is 1-A.
 Alpha  occ. eigenvalues --  -10.19390 -10.19232 -10.19200 -10.19154 -10.18377
 Alpha  occ. eigenvalues --  -10.17962  -0.84471  -0.74983  -0.73249  -0.60573
 Alpha  occ. eigenvalues --   -0.59946  -0.51928  -0.47011  -0.43518  -0.43151
 Alpha  occ. eigenvalues --   -0.39561  -0.36034  -0.34740  -0.32170  -0.25204
 Alpha  occ. eigenvalues --   -0.23947
 Alpha virt. eigenvalues --   -0.00845  -0.00072   0.09185   0.13917   0.14433
 Alpha virt. eigenvalues --    0.15736   0.17223   0.19001   0.19488   0.28032
 Alpha virt. eigenvalues --    0.29711   0.31149   0.31902   0.46150   0.50659

 Mulliken charges:
               1
     1  C   -0.080411
     2  C   -0.071169
     3  C   -0.095583
     4  C   -0.065400
     5  C   -0.102160
     6  C   -0.084867
     7  H    0.086153
     8  H    0.075775
     9  H    0.092211
    10  H    0.084671
    11  H    0.081777
    12  H    0.079004
 Sum of Mulliken charges =  -0.00000

 Dipole moment (field-independent basis, Debye):
    X=              0.0480    Y=              0.2032    Z=              0.1578  Tot=              0.2617
 Quadrupole moment (field-independent basis, Debye-Ang):
   XX=            -30.7686   YY=            -32.4602   ZZ=            -38.4516
   XY=             -0.5162   XZ=              0.1670   YZ=             -0.6674

 Normal termination of Gaussian 16 at Fri Nov 10 17:22:39 2023.
