 Gaussian 16, Revision B.01,
 Gaussian 16:  EM64L-G16RevB.01 20-Dec-2017

 ---------------------------------
 # TD=(NStates=1) B3LYP/6-31G(d,p)
 ---------------------------------

 -------
 ABSSPCT
 -------
 Symbolic Z-matrix:
 Charge =  0 Multiplicity = 1

                         Standard orientation:
 ---------------------------------------------------------------------
 Center     Atomic      Atomic             Coordinates (Angstroms)
 Number     Number       Type             X           Y           Z
 ---------------------------------------------------------------------
      1          6           0        0.071157    1.350446   -0.020156
      2          6           0        1.274100    0.637462    0.030566
      3          6           0        1.178575   -0.714855   -0.038760
      4          6           0       -0.023358   -1.323323   -0.018185
      5          6           0       -1.249424   -0.654836   -0.003583
      6          6           0       -1.180515    0.706434    0.037560
      7          1           0       -0.285830    2.487009   -0.061005
      8          1           0       -2.136581    1.246000    0.057577
      9          1           0       -2.329729   -1.168076   -0.034792
     10          1           0       -0.067055   -2.449007   -0.048739
     11          1           0        2.081900   -1.244111    0.295791
     12          1           0        2.314082    1.120214   -0.133484
 ---------------------------------------------------------------------

 SCF Done:  E(RB3LYP) =  -232.209991530     A.U. after   12 cycles

 Excitation energies and oscillator strengths:

 Excited State   1:      Singlet-A      5.5866 eV  221.93 nm  f=0.0027  <S**2>=0.000
      20 -> 22        -0.34947
      20 -> 23        -0.29625
      21 -> 22        -0.37485
      21 -> 23         0.38601
 This state for optimization and/or second-order correction.
 Total Energy, E(TD-HF/TD-DFT) =  -232.004687418
 Copying the excited state density for this state as the 1-particle RhoCI density.

 The electronic state is 1-A.
 Alpha  occ. eigenvalues --  -10.20029 -10.19826 -10.19543 -10.18812 -10.18591
 Alpha  occ. eigenvalues --  -10.18252  -0.85968  -0.75356  -0.73489  -0.60061
 Alpha  occ. eigenvalues --   -0.59148  -0.51117  -0.45532  -0.43554  -0.41755
 Alpha  occ. eigenvalues --   -0.39772  -0.37222  -0.33662  -0.31839  -0.25705
 Alpha  occ. eigenvalues --   -0.24665
 Alpha virt. eigenvalues --   -0.00189   0.00264   0.06862   0.11469   0.12351
 Alpha virt. eigenvalues --    0.15564   0.16470   0.18020   0.18746   0.28910
 Alpha virt. eigenvalues --    0.30553   0.32686   0.33104   0.45926   0.50414

 Mulliken charges:
               1
     1  C   -0.073385
     2  C   -0.109823
     3  C   -0.076426
     4  C   -0.093044
     5  C   -0.066406
     6  C   -0.092327
     7  H    0.081663
     8  H    0.086430
     9  H    0.082685
    10  H    0.077702
    11  H    0.092110
    12  H    0.090820
 Sum of Mulliken charges =  -0.00000

 Dipole moment (field-independent basis, Debye):
    X=             -0.2057    Y=             -0.0400    Z=              0.0524  Tot=              0.2160
 Quadrupole moment (field-independent basis, Debye-Ang):
   XX=            -31.1240   YY=            -33.0885   ZZ=            -38.5180
   XY=             -0.5033   XZ=              0.2517   YZ=             -0.3669

 Normal termination of Gaussian 16 at Fri Nov 10 19:17:44 2023.
