 Gaussian 16, Revision B.01,
 Gaussian 16:  EM64L-G16RevB.01 20-Dec-2017

 ---------------------------------
 # TD=(NStates=1) B3LYP/6-31G(d,p)
 ---------------------------------

 -------
 ABSSPCT
 -------
 Symbolic Z-matrix:
 Charge =  0 Multiplicity = 1

                         Standard orientation:
 ---------------------------------------------------------------------
 Center     Atomic      Atomic             Coordinates (Angstroms)
 Number     Number       Type             X           Y           Z
 ---------------------------------------------------------------------
      1          6           0       -1.428936   -0.112814    0.069305
      2          6           0       -0.776095    1.150934   -0.034112
      3          6           0        0.664984    1.205775   -0.092571
      4          6           0        1.391369    0.077789    0.020201
      5          6           0        0.786709   -1.173888    0.023360
      6          6           0       -0.646165   -1.197873   -0.013153
      7          1           0       -2.530675   -0.207961   -0.062075
      8          1           0       -1.191373   -2.188671   -0.189037
      9          1           0        1.559842   -1.965817    0.104610
     10          1           0        2.424491    0.083814   -0.038491
     11          1           0        1.117072    2.308706    0.197779
     12          1           0       -1.330551    2.270394    0.149038
 ---------------------------------------------------------------------

 SCF Done:  E(RB3LYP) =  -232.200731605     A.U. after   13 cycles

 Excitation energies and oscillator strengths:

 Excited State   1:      Singlet-A      5.3849 eV  230.24 nm  f=0.0016  <S**2>=0.000
      20 -> 22         0.48364
      21 -> 22        -0.11939
      21 -> 23         0.49835
 This state for optimization and/or second-order correction.
 Total Energy, E(TD-HF/TD-DFT) =  -232.002838678
 Copying the excited state density for this state as the 1-particle RhoCI density.

 The electronic state is 1-A.
 Alpha  occ. eigenvalues --  -10.21234 -10.19914 -10.19814 -10.19622 -10.19454
 Alpha  occ. eigenvalues --  -10.18025  -0.85184  -0.75575  -0.72573  -0.59822
 Alpha  occ. eigenvalues --   -0.58942  -0.50864  -0.44781  -0.44352  -0.41538
 Alpha  occ. eigenvalues --   -0.39763  -0.36414  -0.33764  -0.32359  -0.25993
 Alpha  occ. eigenvalues --   -0.23899
 Alpha virt. eigenvalues --   -0.01450   0.00436   0.06344   0.11517   0.12134
 Alpha virt. eigenvalues --    0.14680   0.16258   0.17408   0.19488   0.27651
 Alpha virt. eigenvalues --    0.29703   0.30560   0.33900   0.46076   0.49863

 Mulliken charges:
               1
     1  C   -0.067679
     2  C   -0.104738
     3  C   -0.081087
     4  C   -0.069885
     5  C   -0.079165
     6  C   -0.100026
     7  H    0.095127
     8  H    0.081243
     9  H    0.093353
    10  H    0.085329
    11  H    0.074683
    12  H    0.072845
 Sum of Mulliken charges =  -0.00000

 Dipole moment (field-independent basis, Debye):
    X=              0.1223    Y=             -0.1905    Z=              0.0908  Tot=              0.2439
 Quadrupole moment (field-independent basis, Debye-Ang):
   XX=            -31.3815   YY=            -32.7227   ZZ=            -38.7307
   XY=             -0.2678   XZ=              0.4026   YZ=              0.8155

 Normal termination of Gaussian 16 at Fri Nov 10 19:21:52 2023.
