 Gaussian 16, Revision B.01,
 Gaussian 16:  EM64L-G16RevB.01 20-Dec-2017

 ---------------------------------
 # TD=(NStates=1) B3LYP/6-31G(d,p)
 ---------------------------------

 -------
 ABSSPCT
 -------
 Symbolic Z-matrix:
 Charge =  0 Multiplicity = 1

                         Standard orientation:
 ---------------------------------------------------------------------
 Center     Atomic      Atomic             Coordinates (Angstroms)
 Number     Number       Type             X           Y           Z
 ---------------------------------------------------------------------
      1          6           0        1.358441   -0.479263   -0.002029
      2          6           0        0.184611   -1.353914   -0.012088
      3          6           0       -1.042868   -0.888017   -0.010726
      4          6           0       -1.346376    0.471997    0.079762
      5          6           0       -0.203022    1.417945   -0.006306
      6          6           0        1.080844    0.831697   -0.051336
      7          1           0        2.343853   -0.852097    0.267684
      8          1           0        1.873436    1.550549   -0.052602
      9          1           0       -0.460050    2.491470   -0.008468
     10          1           0       -2.313007    0.918226   -0.017969
     11          1           0       -1.953188   -1.615278   -0.181776
     12          1           0        0.319177   -2.495539    0.009462
 ---------------------------------------------------------------------

 SCF Done:  E(RB3LYP) =  -232.221799916     A.U. after   13 cycles

 Excitation energies and oscillator strengths:

 Excited State   1:      Singlet-A      5.4077 eV  229.27 nm  f=0.0055  <S**2>=0.000
      20 -> 22         0.51681
      21 -> 22         0.18085
      21 -> 23        -0.44102
 This state for optimization and/or second-order correction.
 Total Energy, E(TD-HF/TD-DFT) =  -232.023070757
 Copying the excited state density for this state as the 1-particle RhoCI density.

 The electronic state is 1-A.
 Alpha  occ. eigenvalues --  -10.19891 -10.19431 -10.19215 -10.19174 -10.18925
 Alpha  occ. eigenvalues --  -10.18452  -0.84744  -0.75022  -0.72919  -0.60714
 Alpha  occ. eigenvalues --   -0.58232  -0.51322  -0.45796  -0.44333  -0.41580
 Alpha  occ. eigenvalues --   -0.40379  -0.36051  -0.35650  -0.31200  -0.25782
 Alpha  occ. eigenvalues --   -0.23616
 Alpha virt. eigenvalues --   -0.01765   0.01505   0.08083   0.12812   0.14178
 Alpha virt. eigenvalues --    0.15666   0.17096   0.18060   0.18713   0.27304
 Alpha virt. eigenvalues --    0.28700   0.31140   0.34326   0.46442   0.51106

 Mulliken charges:
               1
     1  C   -0.083472
     2  C   -0.100501
     3  C   -0.055181
     4  C   -0.102570
     5  C   -0.095722
     6  C   -0.079466
     7  H    0.098179
     8  H    0.078263
     9  H    0.093573
    10  H    0.090375
    11  H    0.076639
    12  H    0.079884
 Sum of Mulliken charges =  -0.00000

 Dipole moment (field-independent basis, Debye):
    X=             -0.0040    Y=              0.1632    Z=              0.0331  Tot=              0.1666
 Quadrupole moment (field-independent basis, Debye-Ang):
   XX=            -31.6575   YY=            -31.7077   ZZ=            -38.5819
   XY=             -0.5380   XZ=              0.7973   YZ=             -0.1309

 Normal termination of Gaussian 16 at Fri Nov 10 17:12:13 2023.
