 Gaussian 16, Revision B.01,
 Gaussian 16:  EM64L-G16RevB.01 20-Dec-2017

 ---------------------------------
 # TD=(NStates=1) B3LYP/6-31G(d,p)
 ---------------------------------

 -------
 ABSSPCT
 -------
 Symbolic Z-matrix:
 Charge =  0 Multiplicity = 1

                         Standard orientation:
 ---------------------------------------------------------------------
 Center     Atomic      Atomic             Coordinates (Angstroms)
 Number     Number       Type             X           Y           Z
 ---------------------------------------------------------------------
      1          6           0       -1.290134   -0.660967   -0.015481
      2          6           0       -0.059447   -1.382970    0.053042
      3          6           0        1.194965   -0.760294   -0.014534
      4          6           0        1.310524    0.648444   -0.008482
      5          6           0        0.041887    1.423605    0.046404
      6          6           0       -1.222429    0.739538   -0.037893
      7          1           0       -2.158528   -1.192332   -0.001764
      8          1           0       -2.249767    1.453367   -0.183095
      9          1           0        0.347541    2.447572    0.248865
     10          1           0        2.183245    1.086805   -0.153965
     11          1           0        2.145653   -1.403504   -0.172775
     12          1           0       -0.120336   -2.436048    0.124408
 ---------------------------------------------------------------------

 SCF Done:  E(RB3LYP) =  -232.206947675     A.U. after   13 cycles

 Excitation energies and oscillator strengths:

 Excited State   1:      Singlet-A      5.1613 eV  240.22 nm  f=0.0005  <S**2>=0.000
      20 -> 22         0.49209
      21 -> 22        -0.12096
      21 -> 23        -0.48462
 This state for optimization and/or second-order correction.
 Total Energy, E(TD-HF/TD-DFT) =  -232.017274118
 Copying the excited state density for this state as the 1-particle RhoCI density.

 The electronic state is 1-A.
 Alpha  occ. eigenvalues --  -10.21540 -10.20295 -10.19681 -10.19131 -10.18968
 Alpha  occ. eigenvalues --  -10.18813  -0.83418  -0.74114  -0.72813  -0.60589
 Alpha  occ. eigenvalues --   -0.59108  -0.50546  -0.47528  -0.44007  -0.41198
 Alpha  occ. eigenvalues --   -0.39640  -0.36344  -0.34999  -0.31546  -0.24831
 Alpha  occ. eigenvalues --   -0.23741
 Alpha virt. eigenvalues --   -0.01358  -0.00109   0.08287   0.11678   0.13765
 Alpha virt. eigenvalues --    0.14950   0.15994   0.18711   0.19531   0.27223
 Alpha virt. eigenvalues --    0.28571   0.29984   0.31743   0.47193   0.50457

 Mulliken charges:
               1
     1  C   -0.065822
     2  C   -0.088870
     3  C   -0.079949
     4  C   -0.085520
     5  C   -0.096157
     6  C   -0.095185
     7  H    0.090278
     8  H    0.073955
     9  H    0.097729
    10  H    0.085139
    11  H    0.079959
    12  H    0.084443
 Sum of Mulliken charges =  -0.00000

 Dipole moment (field-independent basis, Debye):
    X=              0.1357    Y=             -0.1023    Z=             -0.0628  Tot=              0.1812
 Quadrupole moment (field-independent basis, Debye-Ang):
   XX=            -31.3797   YY=            -31.6783   ZZ=            -38.8252
   XY=              0.9876   XZ=             -0.2005   YZ=              0.1215

 Normal termination of Gaussian 16 at Fri Nov 10 16:53:56 2023.
