 Gaussian 16, Revision B.01,
 Gaussian 16:  EM64L-G16RevB.01 20-Dec-2017

 ---------------------------------
 # TD=(NStates=1) B3LYP/6-31G(d,p)
 ---------------------------------

 -------
 ABSSPCT
 -------
 Symbolic Z-matrix:
 Charge =  0 Multiplicity = 1

                         Standard orientation:
 ---------------------------------------------------------------------
 Center     Atomic      Atomic             Coordinates (Angstroms)
 Number     Number       Type             X           Y           Z
 ---------------------------------------------------------------------
      1          6           0        1.088993   -0.775345   -0.009157
      2          6           0       -0.037921   -1.372256    0.016649
      3          6           0       -1.284374   -0.577752   -0.032023
      4          6           0       -1.098099    0.770229    0.018809
      5          6           0        0.112277    1.379714    0.029231
      6          6           0        1.222347    0.578172   -0.052321
      7          1           0        2.062003   -1.348288    0.086815
      8          1           0        2.266625    0.880075    0.108431
      9          1           0        0.342958    2.505890   -0.057963
     10          1           0       -2.025743    1.339912    0.009630
     11          1           0       -2.395978   -0.908890    0.034608
     12          1           0       -0.269203   -2.485266   -0.008648
 ---------------------------------------------------------------------

 SCF Done:  E(RB3LYP) =  -232.210963341     A.U. after   13 cycles

 Excitation energies and oscillator strengths:

 Excited State   1:      Singlet-A      5.8133 eV  213.28 nm  f=0.0020  <S**2>=0.000
      20 -> 22         0.53095
      21 -> 23         0.46055
 This state for optimization and/or second-order correction.
 Total Energy, E(TD-HF/TD-DFT) =  -231.997327336
 Copying the excited state density for this state as the 1-particle RhoCI density.

 The electronic state is 1-A.
 Alpha  occ. eigenvalues --  -10.19655 -10.18974 -10.18956 -10.18102 -10.18022
 Alpha  occ. eigenvalues --  -10.17613  -0.86516  -0.75734  -0.73814  -0.60815
 Alpha  occ. eigenvalues --   -0.58606  -0.51736  -0.46126  -0.43280  -0.41219
 Alpha  occ. eigenvalues --   -0.40661  -0.37509  -0.34786  -0.31207  -0.26368
 Alpha  occ. eigenvalues --   -0.24361
 Alpha virt. eigenvalues --   -0.00819   0.02192   0.07197   0.12569   0.12926
 Alpha virt. eigenvalues --    0.16088   0.17481   0.18462   0.19659   0.28017
 Alpha virt. eigenvalues --    0.30638   0.32812   0.36129   0.45337   0.51801

 Mulliken charges:
               1
     1  C   -0.056372
     2  C   -0.097876
     3  C   -0.100187
     4  C   -0.077402
     5  C   -0.081028
     6  C   -0.086323
     7  H    0.077893
     8  H    0.083430
     9  H    0.086018
    10  H    0.076656
    11  H    0.091760
    12  H    0.083432
 Sum of Mulliken charges =  -0.00000

 Dipole moment (field-independent basis, Debye):
    X=             -0.0244    Y=              0.0087    Z=              0.1026  Tot=              0.1058
 Quadrupole moment (field-independent basis, Debye-Ang):
   XX=            -31.2372   YY=            -32.6722   ZZ=            -38.3200
   XY=              0.3400   XZ=              0.2360   YZ=             -0.1307

 Normal termination of Gaussian 16 at Fri Nov 10 18:28:49 2023.
