 Gaussian 16, Revision B.01,
 Gaussian 16:  EM64L-G16RevB.01 20-Dec-2017

 ---------------------------------
 # TD=(NStates=1) B3LYP/6-31G(d,p)
 ---------------------------------

 -------
 ABSSPCT
 -------
 Symbolic Z-matrix:
 Charge =  0 Multiplicity = 1

                         Standard orientation:
 ---------------------------------------------------------------------
 Center     Atomic      Atomic             Coordinates (Angstroms)
 Number     Number       Type             X           Y           Z
 ---------------------------------------------------------------------
      1          6           0       -0.551855    1.283981   -0.031127
      2          6           0        0.812600    1.136860   -0.010310
      3          6           0        1.405327   -0.133463    0.001069
      4          6           0        0.577556   -1.321193   -0.050999
      5          6           0       -0.797287   -1.101906   -0.007596
      6          6           0       -1.403838    0.114792    0.058863
      7          1           0       -1.036327    2.214604   -0.082686
      8          1           0       -2.543908    0.342896    0.048010
      9          1           0       -1.587808   -1.974925   -0.032382
     10          1           0        0.944405   -2.153572    0.087844
     11          1           0        2.536960   -0.231213    0.146334
     12          1           0        1.431663    1.927782    0.073480
 ---------------------------------------------------------------------

 SCF Done:  E(RB3LYP) =  -232.204442353     A.U. after   13 cycles

 Excitation energies and oscillator strengths:

 Excited State   1:      Singlet-A      5.4108 eV  229.14 nm  f=0.0016  <S**2>=0.000
      20 -> 22         0.53073
      21 -> 23        -0.46356
 This state for optimization and/or second-order correction.
 Total Energy, E(TD-HF/TD-DFT) =  -232.005599397
 Copying the excited state density for this state as the 1-particle RhoCI density.

 The electronic state is 1-A.
 Alpha  occ. eigenvalues --  -10.19929 -10.19511 -10.19407 -10.18688 -10.17955
 Alpha  occ. eigenvalues --  -10.17899  -0.84531  -0.74811  -0.73567  -0.61431
 Alpha  occ. eigenvalues --   -0.58725  -0.52252  -0.46600  -0.44308  -0.41768
 Alpha  occ. eigenvalues --   -0.40782  -0.35827  -0.35463  -0.32076  -0.25206
 Alpha  occ. eigenvalues --   -0.24050
 Alpha virt. eigenvalues --   -0.01158   0.00953   0.08479   0.13137   0.14676
 Alpha virt. eigenvalues --    0.15327   0.17813   0.19062   0.19949   0.28113
 Alpha virt. eigenvalues --    0.29226   0.31401   0.33569   0.46612   0.51944

 Mulliken charges:
               1
     1  C   -0.088974
     2  C   -0.053998
     3  C   -0.115653
     4  C   -0.037436
     5  C   -0.094571
     6  C   -0.079593
     7  H    0.083135
     8  H    0.087999
     9  H    0.071281
    10  H    0.064389
    11  H    0.084676
    12  H    0.078745
 Sum of Mulliken charges =  -0.00000

 Dipole moment (field-independent basis, Debye):
    X=              0.0424    Y=              0.1621    Z=              0.1477  Tot=              0.2234
 Quadrupole moment (field-independent basis, Debye-Ang):
   XX=            -31.2703   YY=            -31.8668   ZZ=            -38.4836
   XY=             -0.4634   XZ=              0.4998   YZ=             -0.1762

 Normal termination of Gaussian 16 at Fri Nov 10 18:08:27 2023.
