 Gaussian 16, Revision B.01,
 Gaussian 16:  EM64L-G16RevB.01 20-Dec-2017

 ---------------------------------
 # TD=(NStates=1) B3LYP/6-31G(d,p)
 ---------------------------------

 -------
 ABSSPCT
 -------
 Symbolic Z-matrix:
 Charge =  0 Multiplicity = 1

                         Standard orientation:
 ---------------------------------------------------------------------
 Center     Atomic      Atomic             Coordinates (Angstroms)
 Number     Number       Type             X           Y           Z
 ---------------------------------------------------------------------
      1          6           0       -1.169663    0.853115   -0.063361
      2          6           0        0.189247    1.324748   -0.015321
      3          6           0        1.287970    0.552519    0.032929
      4          6           0        1.123192   -0.860054   -0.015863
      5          6           0       -0.183068   -1.331607   -0.026362
      6          6           0       -1.314676   -0.555198    0.090692
      7          1           0       -2.063852    1.428758    0.038838
      8          1           0       -2.328464   -0.900142    0.021308
      9          1           0       -0.155549   -2.357002   -0.100020
     10          1           0        2.031476   -1.528502   -0.071129
     11          1           0        2.326955    0.987924    0.181084
     12          1           0        0.591422    2.467827   -0.086352
 ---------------------------------------------------------------------

 SCF Done:  E(RB3LYP) =  -232.218687349     A.U. after   13 cycles

 Excitation energies and oscillator strengths:

 Excited State   1:      Singlet-A      5.4471 eV  227.62 nm  f=0.0043  <S**2>=0.000
      20 -> 22         0.49065
      20 -> 23        -0.15383
      21 -> 22         0.23815
      21 -> 23         0.42243
 This state for optimization and/or second-order correction.
 Total Energy, E(TD-HF/TD-DFT) =  -232.018510224
 Copying the excited state density for this state as the 1-particle RhoCI density.

 The electronic state is 1-A.
 Alpha  occ. eigenvalues --  -10.19892 -10.19789 -10.19272 -10.19142 -10.18911
 Alpha  occ. eigenvalues --  -10.18037  -0.84878  -0.74628  -0.73657  -0.60252
 Alpha  occ. eigenvalues --   -0.59024  -0.51795  -0.45373  -0.44494  -0.41256
 Alpha  occ. eigenvalues --   -0.40299  -0.36185  -0.35663  -0.31190  -0.25294
 Alpha  occ. eigenvalues --   -0.24325
 Alpha virt. eigenvalues --   -0.01120   0.00911   0.07569   0.12862   0.13910
 Alpha virt. eigenvalues --    0.15380   0.16700   0.18640   0.19105   0.28297
 Alpha virt. eigenvalues --    0.29491   0.30867   0.33240   0.46672   0.49775

 Mulliken charges:
               1
     1  C   -0.104277
     2  C   -0.077179
     3  C   -0.074389
     4  C   -0.095097
     5  C   -0.068083
     6  C   -0.089127
     7  H    0.096872
     8  H    0.090987
     9  H    0.077631
    10  H    0.088941
    11  H    0.087159
    12  H    0.066561
 Sum of Mulliken charges =  -0.00000

 Dipole moment (field-independent basis, Debye):
    X=              0.0336    Y=             -0.1796    Z=             -0.0066  Tot=              0.1828
 Quadrupole moment (field-independent basis, Debye-Ang):
   XX=            -30.6039   YY=            -32.8613   ZZ=            -38.6203
   XY=             -0.2153   XZ=              0.0713   YZ=              0.2816

 Normal termination of Gaussian 16 at Fri Nov 10 19:22:38 2023.
