 Gaussian 16, Revision B.01,
 Gaussian 16:  EM64L-G16RevB.01 20-Dec-2017

 ---------------------------------
 # TD=(NStates=1) B3LYP/6-31G(d,p)
 ---------------------------------

 -------
 ABSSPCT
 -------
 Symbolic Z-matrix:
 Charge =  0 Multiplicity = 1

                         Standard orientation:
 ---------------------------------------------------------------------
 Center     Atomic      Atomic             Coordinates (Angstroms)
 Number     Number       Type             X           Y           Z
 ---------------------------------------------------------------------
      1          6           0       -1.118529    0.721870   -0.000968
      2          6           0       -1.198191   -0.653004    0.017901
      3          6           0       -0.102493   -1.388086   -0.040094
      4          6           0        1.211704   -0.691363   -0.000190
      5          6           0        1.227414    0.615204    0.064674
      6          6           0        0.016814    1.372965   -0.122064
      7          1           0       -2.190818    1.378518    0.170847
      8          1           0        0.102788    2.486597    0.083349
      9          1           0        2.281433    1.048888    0.171649
     10          1           0        2.018240   -1.297642   -0.087996
     11          1           0       -0.152215   -2.488189    0.056808
     12          1           0       -2.279749   -0.993692    0.089786
 ---------------------------------------------------------------------

 SCF Done:  E(RB3LYP) =  -232.199218926     A.U. after   12 cycles

 Excitation energies and oscillator strengths:

 Excited State   1:      Singlet-A      5.7290 eV  216.42 nm  f=0.0037  <S**2>=0.000
      20 -> 22         0.52405
      20 -> 23         0.10975
      21 -> 22        -0.18301
      21 -> 23         0.42294
 This state for optimization and/or second-order correction.
 Total Energy, E(TD-HF/TD-DFT) =  -231.988682281
 Copying the excited state density for this state as the 1-particle RhoCI density.

 The electronic state is 1-A.
 Alpha  occ. eigenvalues --  -10.19472 -10.19058 -10.18961 -10.18901 -10.18384
 Alpha  occ. eigenvalues --  -10.17894  -0.86203  -0.75327  -0.74235  -0.60381
 Alpha  occ. eigenvalues --   -0.58756  -0.51680  -0.45503  -0.43628  -0.41800
 Alpha  occ. eigenvalues --   -0.40885  -0.36949  -0.33259  -0.32529  -0.25681
 Alpha  occ. eigenvalues --   -0.24918
 Alpha virt. eigenvalues --   -0.00488   0.01433   0.06168   0.12441   0.13369
 Alpha virt. eigenvalues --    0.15896   0.16915   0.18189   0.19173   0.27925
 Alpha virt. eigenvalues --    0.30129   0.33853   0.34673   0.44815   0.51455

 Mulliken charges:
               1
     1  C   -0.069406
     2  C   -0.049382
     3  C   -0.112928
     4  C   -0.059332
     5  C   -0.096993
     6  C   -0.094788
     7  H    0.062102
     8  H    0.086384
     9  H    0.081144
    10  H    0.083092
    11  H    0.086653
    12  H    0.083453
 Sum of Mulliken charges =  -0.00000

 Dipole moment (field-independent basis, Debye):
    X=              0.1431    Y=             -0.1814    Z=              0.2528  Tot=              0.3425
 Quadrupole moment (field-independent basis, Debye-Ang):
   XX=            -31.8141   YY=            -32.2846   ZZ=            -38.3341
   XY=             -0.1825   XZ=             -0.2597   YZ=              0.4083

 Normal termination of Gaussian 16 at Fri Nov 10 18:19:07 2023.
