 Gaussian 16, Revision B.01,
 Gaussian 16:  EM64L-G16RevB.01 20-Dec-2017

 ---------------------------------
 # TD=(NStates=1) B3LYP/6-31G(d,p)
 ---------------------------------

 -------
 ABSSPCT
 -------
 Symbolic Z-matrix:
 Charge =  0 Multiplicity = 1

                         Standard orientation:
 ---------------------------------------------------------------------
 Center     Atomic      Atomic             Coordinates (Angstroms)
 Number     Number       Type             X           Y           Z
 ---------------------------------------------------------------------
      1          6           0        0.209264   -1.331201    0.016060
      2          6           0       -1.129518   -0.840481   -0.018950
      3          6           0       -1.326470    0.524962   -0.026862
      4          6           0       -0.176657    1.363737    0.013981
      5          6           0        1.096384    0.835533   -0.004331
      6          6           0        1.361201   -0.497131   -0.027380
      7          1           0        0.154925   -2.509303    0.049377
      8          1           0        2.349030   -1.097928   -0.089760
      9          1           0        1.967698    1.507147    0.173220
     10          1           0       -0.412332    2.521854    0.027944
     11          1           0       -2.297996    0.840427   -0.067882
     12          1           0       -1.966555   -1.594715    0.191991
 ---------------------------------------------------------------------

 SCF Done:  E(RB3LYP) =  -232.220538433     A.U. after   13 cycles

 Excitation energies and oscillator strengths:

 Excited State   1:      Singlet-A      5.4591 eV  227.12 nm  f=0.0030  <S**2>=0.000
      20 -> 22         0.41000
      20 -> 23        -0.20374
      21 -> 22         0.28804
      21 -> 23         0.45494
 This state for optimization and/or second-order correction.
 Total Energy, E(TD-HF/TD-DFT) =  -232.019921541
 Copying the excited state density for this state as the 1-particle RhoCI density.

 The electronic state is 1-A.
 Alpha  occ. eigenvalues --  -10.20069 -10.20062 -10.19836 -10.19260 -10.19178
 Alpha  occ. eigenvalues --  -10.18505  -0.84894  -0.74984  -0.72838  -0.60124
 Alpha  occ. eigenvalues --   -0.58720  -0.51010  -0.45096  -0.44324  -0.42087
 Alpha  occ. eigenvalues --   -0.39554  -0.36583  -0.33416  -0.32518  -0.25542
 Alpha  occ. eigenvalues --   -0.24142
 Alpha virt. eigenvalues --   -0.00509   0.00301   0.07253   0.12050   0.13020
 Alpha virt. eigenvalues --    0.15448   0.16681   0.16696   0.19050   0.28002
 Alpha virt. eigenvalues --    0.30521   0.30934   0.32399   0.46554   0.51948

 Mulliken charges:
               1
     1  C   -0.094792
     2  C   -0.085458
     3  C   -0.074131
     4  C   -0.084743
     5  C   -0.098706
     6  C   -0.077626
     7  H    0.073833
     8  H    0.100349
     9  H    0.087373
    10  H    0.083185
    11  H    0.084718
    12  H    0.086000
 Sum of Mulliken charges =  -0.00000

 Dipole moment (field-independent basis, Debye):
    X=             -0.1104    Y=             -0.0441    Z=              0.1528  Tot=              0.1936
 Quadrupole moment (field-independent basis, Debye-Ang):
   XX=            -31.4130   YY=            -32.1827   ZZ=            -38.7568
   XY=             -0.1522   XZ=             -0.0837   YZ=             -0.0374

 Normal termination of Gaussian 16 at Fri Nov 10 18:17:36 2023.
