 Gaussian 16, Revision B.01,
 Gaussian 16:  EM64L-G16RevB.01 20-Dec-2017

 ---------------------------------
 # TD=(NStates=1) B3LYP/6-31G(d,p)
 ---------------------------------

 -------
 ABSSPCT
 -------
 Symbolic Z-matrix:
 Charge =  0 Multiplicity = 1

                         Standard orientation:
 ---------------------------------------------------------------------
 Center     Atomic      Atomic             Coordinates (Angstroms)
 Number     Number       Type             X           Y           Z
 ---------------------------------------------------------------------
      1          6           0        0.157432   -1.356301    0.021783
      2          6           0       -1.114244   -0.832678   -0.078756
      3          6           0       -1.299610    0.565536    0.046313
      4          6           0       -0.185041    1.364409   -0.001270
      5          6           0        1.122312    0.777843   -0.009703
      6          6           0        1.326490   -0.564307   -0.020217
      7          1           0        0.038564   -2.326665    0.122634
      8          1           0        2.411685   -0.941107    0.116805
      9          1           0        1.910588    1.604560   -0.044172
     10          1           0       -0.287065    2.568701   -0.017417
     11          1           0       -2.207928    0.954491    0.094824
     12          1           0       -1.909877   -1.586988   -0.021572
 ---------------------------------------------------------------------

 SCF Done:  E(RB3LYP) =  -232.210392519     A.U. after   13 cycles

 Excitation energies and oscillator strengths:

 Excited State   1:      Singlet-A      5.5081 eV  225.10 nm  f=0.0022  <S**2>=0.000
      20 -> 23        -0.44918
      21 -> 22         0.52905
      21 -> 23         0.10210
 This state for optimization and/or second-order correction.
 Total Energy, E(TD-HF/TD-DFT) =  -232.007975310
 Copying the excited state density for this state as the 1-particle RhoCI density.

 The electronic state is 1-A.
 Alpha  occ. eigenvalues --  -10.19852 -10.19777 -10.19309 -10.18663 -10.17960
 Alpha  occ. eigenvalues --  -10.17763  -0.85038  -0.74613  -0.74194  -0.60859
 Alpha  occ. eigenvalues --   -0.58712  -0.52205  -0.45506  -0.44335  -0.42167
 Alpha  occ. eigenvalues --   -0.40132  -0.36181  -0.33887  -0.33255  -0.25221
 Alpha  occ. eigenvalues --   -0.24358
 Alpha virt. eigenvalues --    0.00027   0.00211   0.07705   0.13110   0.13763
 Alpha virt. eigenvalues --    0.15757   0.16584   0.18616   0.20863   0.28577
 Alpha virt. eigenvalues --    0.30677   0.31182   0.33097   0.46440   0.51060

 Mulliken charges:
               1
     1  C   -0.065260
     2  C   -0.100556
     3  C   -0.062579
     4  C   -0.086300
     5  C   -0.083993
     6  C   -0.083355
     7  H    0.072449
     8  H    0.090548
     9  H    0.082492
    10  H    0.076558
    11  H    0.076713
    12  H    0.083282
 Sum of Mulliken charges =  -0.00000

 Dipole moment (field-independent basis, Debye):
    X=             -0.1498    Y=             -0.0534    Z=              0.1772  Tot=              0.2381
 Quadrupole moment (field-independent basis, Debye-Ang):
   XX=            -31.7869   YY=            -31.5753   ZZ=            -38.4937
   XY=              0.3932   XZ=              0.0139   YZ=             -0.3470

 Normal termination of Gaussian 16 at Fri Nov 10 17:54:29 2023.
