 Gaussian 16, Revision B.01,
 Gaussian 16:  EM64L-G16RevB.01 20-Dec-2017

 ---------------------------------
 # TD=(NStates=1) B3LYP/6-31G(d,p)
 ---------------------------------

 -------
 ABSSPCT
 -------
 Symbolic Z-matrix:
 Charge =  0 Multiplicity = 1

                         Standard orientation:
 ---------------------------------------------------------------------
 Center     Atomic      Atomic             Coordinates (Angstroms)
 Number     Number       Type             X           Y           Z
 ---------------------------------------------------------------------
      1          6           0       -0.389179    1.295436   -0.014061
      2          6           0        0.912378    0.981876   -0.037721
      3          6           0        1.366886   -0.306331    0.038634
      4          6           0        0.407938   -1.308548   -0.013155
      5          6           0       -0.901935   -0.959035   -0.080948
      6          6           0       -1.407929    0.289003   -0.012081
      7          1           0       -0.745125    2.444257    0.093747
      8          1           0       -2.556491    0.341645    0.363721
      9          1           0       -1.634678   -1.858576   -0.022926
     10          1           0        0.839169   -2.307361    0.232525
     11          1           0        2.449787   -0.328836    0.043649
     12          1           0        1.718384    1.754466    0.005274
 ---------------------------------------------------------------------

 SCF Done:  E(RB3LYP) =  -232.206750475     A.U. after   13 cycles

 Excitation energies and oscillator strengths:

 Excited State   1:      Singlet-A      5.6419 eV  219.76 nm  f=0.0031  <S**2>=0.000
      20 -> 22         0.50658
      21 -> 22         0.17522
      21 -> 23        -0.44997
 This state for optimization and/or second-order correction.
 Total Energy, E(TD-HF/TD-DFT) =  -231.999416012
 Copying the excited state density for this state as the 1-particle RhoCI density.

 The electronic state is 1-A.
 Alpha  occ. eigenvalues --  -10.20170 -10.19952 -10.18886 -10.18803 -10.18349
 Alpha  occ. eigenvalues --  -10.18084  -0.86303  -0.75182  -0.73984  -0.60648
 Alpha  occ. eigenvalues --   -0.58447  -0.51300  -0.45933  -0.43038  -0.41311
 Alpha  occ. eigenvalues --   -0.40189  -0.37098  -0.34671  -0.31352  -0.25762
 Alpha  occ. eigenvalues --   -0.24652
 Alpha virt. eigenvalues --   -0.00798   0.01278   0.06217   0.11767   0.12859
 Alpha virt. eigenvalues --    0.14731   0.16369   0.18485   0.19634   0.29344
 Alpha virt. eigenvalues --    0.30378   0.31857   0.35220   0.45445   0.51067

 Mulliken charges:
               1
     1  C   -0.109302
     2  C   -0.058622
     3  C   -0.079998
     4  C   -0.084197
     5  C   -0.082089
     6  C   -0.085875
     7  H    0.072294
     8  H    0.098731
     9  H    0.071347
    10  H    0.089912
    11  H    0.089034
    12  H    0.078765
 Sum of Mulliken charges =  -0.00000

 Dipole moment (field-independent basis, Debye):
    X=              0.1923    Y=             -0.0721    Z=              0.4269  Tot=              0.4737
 Quadrupole moment (field-independent basis, Debye-Ang):
   XX=            -31.2414   YY=            -33.1119   ZZ=            -38.3693
   XY=              0.2224   XZ=             -0.5607   YZ=             -0.1676

 Normal termination of Gaussian 16 at Fri Nov 10 16:57:24 2023.
