 Gaussian 16, Revision B.01,
 Gaussian 16:  EM64L-G16RevB.01 20-Dec-2017

 ---------------------------------
 # TD=(NStates=1) B3LYP/6-31G(d,p)
 ---------------------------------

 -------
 ABSSPCT
 -------
 Symbolic Z-matrix:
 Charge =  0 Multiplicity = 1

                         Standard orientation:
 ---------------------------------------------------------------------
 Center     Atomic      Atomic             Coordinates (Angstroms)
 Number     Number       Type             X           Y           Z
 ---------------------------------------------------------------------
      1          6           0       -1.222787   -0.682910    0.009748
      2          6           0       -0.034600   -1.363166   -0.056690
      3          6           0        1.196513   -0.716801   -0.018830
      4          6           0        1.257159    0.662599    0.040330
      5          6           0        0.055027    1.384557   -0.016865
      6          6           0       -1.267611    0.742993    0.031441
      7          1           0       -2.265469   -1.237287    0.087953
      8          1           0       -2.210091    1.329516   -0.054402
      9          1           0        0.267184    2.454996   -0.095831
     10          1           0        2.241060    1.013945   -0.026660
     11          1           0        2.120813   -1.356236    0.141685
     12          1           0       -0.055699   -2.368576    0.012457
 ---------------------------------------------------------------------

 SCF Done:  E(RB3LYP) =  -232.227113468     A.U. after   13 cycles

 Excitation energies and oscillator strengths:

 Excited State   1:      Singlet-A      5.3806 eV  230.43 nm  f=0.0008  <S**2>=0.000
      20 -> 22         0.49876
      21 -> 22         0.13827
      21 -> 23        -0.47098
 This state for optimization and/or second-order correction.
 Total Energy, E(TD-HF/TD-DFT) =  -232.029380031
 Copying the excited state density for this state as the 1-particle RhoCI density.

 The electronic state is 1-A.
 Alpha  occ. eigenvalues --  -10.20526 -10.19988 -10.19861 -10.18876 -10.18287
 Alpha  occ. eigenvalues --  -10.17653  -0.84428  -0.74416  -0.73316  -0.60348
 Alpha  occ. eigenvalues --   -0.58997  -0.51728  -0.45887  -0.43408  -0.41445
 Alpha  occ. eigenvalues --   -0.41365  -0.35761  -0.34344  -0.32928  -0.25025
 Alpha  occ. eigenvalues --   -0.24180
 Alpha virt. eigenvalues --   -0.00838   0.00408   0.08424   0.13253   0.14463
 Alpha virt. eigenvalues --    0.15282   0.16180   0.17812   0.20075   0.28212
 Alpha virt. eigenvalues --    0.29040   0.31737   0.32160   0.46236   0.51049

 Mulliken charges:
               1
     1  C   -0.093187
     2  C   -0.054905
     3  C   -0.094061
     4  C   -0.069467
     5  C   -0.105431
     6  C   -0.094722
     7  H    0.079695
     8  H    0.098905
     9  H    0.084974
    10  H    0.088412
    11  H    0.081679
    12  H    0.078109
 Sum of Mulliken charges =  -0.00000

 Dipole moment (field-independent basis, Debye):
    X=              0.0880    Y=             -0.0518    Z=              0.0200  Tot=              0.1040
 Quadrupole moment (field-independent basis, Debye-Ang):
   XX=            -31.0575   YY=            -32.1001   ZZ=            -38.6724
   XY=             -0.0901   XZ=              0.1112   YZ=             -0.5530

 Normal termination of Gaussian 16 at Fri Nov 10 16:32:15 2023.
