 Gaussian 16, Revision B.01,
 Gaussian 16:  EM64L-G16RevB.01 20-Dec-2017

 ---------------------------------
 # TD=(NStates=1) B3LYP/6-31G(d,p)
 ---------------------------------

 -------
 ABSSPCT
 -------
 Symbolic Z-matrix:
 Charge =  0 Multiplicity = 1

                         Standard orientation:
 ---------------------------------------------------------------------
 Center     Atomic      Atomic             Coordinates (Angstroms)
 Number     Number       Type             X           Y           Z
 ---------------------------------------------------------------------
      1          6           0       -1.050935    0.844556   -0.008229
      2          6           0       -1.340276   -0.546453    0.020722
      3          6           0       -0.219968   -1.373631    0.043528
      4          6           0        1.122119   -0.837151   -0.030958
      5          6           0        1.285218    0.501650    0.023858
      6          6           0        0.224600    1.468119   -0.019875
      7          1           0       -2.055544    1.376211   -0.053554
      8          1           0        0.133838    2.518171   -0.124164
      9          1           0        2.361060    0.765625    0.299300
     10          1           0        2.039159   -1.531040   -0.247570
     11          1           0       -0.252961   -2.596209   -0.088369
     12          1           0       -2.350098   -0.875304    0.040086
 ---------------------------------------------------------------------

 SCF Done:  E(RB3LYP) =  -232.207772236     A.U. after   13 cycles

 Excitation energies and oscillator strengths:

 Excited State   1:      Singlet-A      5.2769 eV  234.96 nm  f=0.0026  <S**2>=0.000
      20 -> 22         0.39672
      20 -> 23        -0.28094
      21 -> 22         0.37000
      21 -> 23         0.35517
 This state for optimization and/or second-order correction.
 Total Energy, E(TD-HF/TD-DFT) =  -232.013850320
 Copying the excited state density for this state as the 1-particle RhoCI density.

 The electronic state is 1-A.
 Alpha  occ. eigenvalues --  -10.20733 -10.20006 -10.19897 -10.19701 -10.19663
 Alpha  occ. eigenvalues --  -10.19163  -0.84395  -0.74419  -0.73235  -0.60376
 Alpha  occ. eigenvalues --   -0.58030  -0.51323  -0.45060  -0.43956  -0.41424
 Alpha  occ. eigenvalues --   -0.40741  -0.36395  -0.33088  -0.32226  -0.24866
 Alpha  occ. eigenvalues --   -0.24314
 Alpha virt. eigenvalues --   -0.01085   0.00053   0.07207   0.12234   0.12622
 Alpha virt. eigenvalues --    0.15381   0.15650   0.16738   0.18657   0.26668
 Alpha virt. eigenvalues --    0.28131   0.32142   0.33000   0.45084   0.47493

 Mulliken charges:
               1
     1  C   -0.105218
     2  C   -0.067516
     3  C   -0.094285
     4  C   -0.073714
     5  C   -0.104038
     6  C   -0.071935
     7  H    0.074270
     8  H    0.103813
     9  H    0.081870
    10  H    0.094241
    11  H    0.066638
    12  H    0.095874
 Sum of Mulliken charges =  -0.00000

 Dipole moment (field-independent basis, Debye):
    X=             -0.1358    Y=              0.0582    Z=             -0.1105  Tot=              0.1845
 Quadrupole moment (field-independent basis, Debye-Ang):
   XX=            -31.5137   YY=            -32.2837   ZZ=            -38.8144
   XY=             -0.5725   XZ=              0.1207   YZ=              0.2735

 Normal termination of Gaussian 16 at Fri Nov 10 18:56:33 2023.
