 Gaussian 16, Revision B.01,
 Gaussian 16:  EM64L-G16RevB.01 20-Dec-2017

 ---------------------------------
 # TD=(NStates=1) B3LYP/6-31G(d,p)
 ---------------------------------

 -------
 ABSSPCT
 -------
 Symbolic Z-matrix:
 Charge =  0 Multiplicity = 1

                         Standard orientation:
 ---------------------------------------------------------------------
 Center     Atomic      Atomic             Coordinates (Angstroms)
 Number     Number       Type             X           Y           Z
 ---------------------------------------------------------------------
      1          6           0        1.223984    0.680669   -0.022219
      2          6           0        0.028918    1.376153    0.028304
      3          6           0       -1.210422    0.648236   -0.060146
      4          6           0       -1.246466   -0.702590   -0.015680
      5          6           0        0.046287   -1.362779    0.027336
      6          6           0        1.214253   -0.708805    0.015882
      7          1           0        2.058105    1.295090   -0.090433
      8          1           0        2.152496   -1.020156    0.048302
      9          1           0       -0.013803   -2.561645   -0.071930
     10          1           0       -2.174281   -1.197765    0.064414
     11          1           0       -2.186927    1.326489    0.129917
     12          1           0       -0.174912    2.572688    0.078863
 ---------------------------------------------------------------------

 SCF Done:  E(RB3LYP) =  -232.202748707     A.U. after   13 cycles

 Excitation energies and oscillator strengths:

 Excited State   1:      Singlet-A      5.5448 eV  223.60 nm  f=0.0011  <S**2>=0.000
      20 -> 22         0.46074
      20 -> 23        -0.11290
      21 -> 22         0.15260
      21 -> 23         0.50115
 This state for optimization and/or second-order correction.
 Total Energy, E(TD-HF/TD-DFT) =  -231.998980100
 Copying the excited state density for this state as the 1-particle RhoCI density.

 The electronic state is 1-A.
 Alpha  occ. eigenvalues --  -10.20208 -10.19909 -10.19546 -10.18931 -10.18351
 Alpha  occ. eigenvalues --  -10.17859  -0.85274  -0.75350  -0.73262  -0.60312
 Alpha  occ. eigenvalues --   -0.59554  -0.51470  -0.45839  -0.44427  -0.42157
 Alpha  occ. eigenvalues --   -0.39796  -0.36497  -0.33823  -0.32196  -0.25613
 Alpha  occ. eigenvalues --   -0.24338
 Alpha virt. eigenvalues --   -0.00391   0.00467   0.07284   0.11529   0.14022
 Alpha virt. eigenvalues --    0.16010   0.16398   0.18159   0.19192   0.27702
 Alpha virt. eigenvalues --    0.29711   0.32562   0.33476   0.45669   0.52068

 Mulliken charges:
               1
     1  C   -0.101696
     2  C   -0.080013
     3  C   -0.086729
     4  C   -0.070196
     5  C   -0.112872
     6  C   -0.032516
     7  H    0.088277
     8  H    0.082139
     9  H    0.072289
    10  H    0.093532
    11  H    0.069735
    12  H    0.078050
 Sum of Mulliken charges =  -0.00000

 Dipole moment (field-independent basis, Debye):
    X=              0.1095    Y=              0.0507    Z=              0.0855  Tot=              0.1479
 Quadrupole moment (field-independent basis, Debye-Ang):
   XX=            -31.2874   YY=            -32.4348   ZZ=            -38.5656
   XY=              0.3067   XZ=             -0.4183   YZ=              0.2187

 Normal termination of Gaussian 16 at Fri Nov 10 19:34:51 2023.
