 Gaussian 16, Revision B.01,
 Gaussian 16:  EM64L-G16RevB.01 20-Dec-2017

 ---------------------------------
 # TD=(NStates=1) B3LYP/6-31G(d,p)
 ---------------------------------

 -------
 ABSSPCT
 -------
 Symbolic Z-matrix:
 Charge =  0 Multiplicity = 1

                         Standard orientation:
 ---------------------------------------------------------------------
 Center     Atomic      Atomic             Coordinates (Angstroms)
 Number     Number       Type             X           Y           Z
 ---------------------------------------------------------------------
      1          6           0        0.733493    1.200847   -0.007021
      2          6           0       -0.574467    1.206946   -0.050286
      3          6           0       -1.395727    0.063999    0.044773
      4          6           0       -0.798773   -1.117272   -0.029870
      5          6           0        0.712320   -1.272604   -0.055994
      6          6           0        1.371216   -0.054618    0.040488
      7          1           0        1.270952    2.186417    0.149907
      8          1           0        2.504448   -0.323988    0.027280
      9          1           0        1.130154   -2.083668    0.026786
     10          1           0       -1.403856   -2.104774    0.155931
     11          1           0       -2.618421    0.061605    0.061668
     12          1           0       -1.171641    2.100622   -0.074112
 ---------------------------------------------------------------------

 SCF Done:  E(RB3LYP) =  -232.178134778     A.U. after   13 cycles

 Excitation energies and oscillator strengths:

 Excited State   1:      Singlet-A      5.6073 eV  221.11 nm  f=0.0006  <S**2>=0.000
      20 -> 22         0.51764
      21 -> 23        -0.47951
 This state for optimization and/or second-order correction.
 Total Energy, E(TD-HF/TD-DFT) =  -231.972071742
 Copying the excited state density for this state as the 1-particle RhoCI density.

 The electronic state is 1-A.
 Alpha  occ. eigenvalues --  -10.19779 -10.19641 -10.19402 -10.19171 -10.18317
 Alpha  occ. eigenvalues --  -10.18115  -0.85440  -0.74760  -0.74344  -0.61169
 Alpha  occ. eigenvalues --   -0.58475  -0.51507  -0.46224  -0.44595  -0.41501
 Alpha  occ. eigenvalues --   -0.40404  -0.36756  -0.34261  -0.31090  -0.25489
 Alpha  occ. eigenvalues --   -0.24676
 Alpha virt. eigenvalues --   -0.00560   0.00807   0.07204   0.11445   0.13905
 Alpha virt. eigenvalues --    0.15681   0.16158   0.18171   0.20289   0.26953
 Alpha virt. eigenvalues --    0.29010   0.32318   0.34475   0.44959   0.49273

 Mulliken charges:
               1
     1  C   -0.068959
     2  C   -0.086930
     3  C   -0.066671
     4  C   -0.102254
     5  C   -0.029491
     6  C   -0.110904
     7  H    0.093414
     8  H    0.075545
     9  H    0.059951
    10  H    0.069860
    11  H    0.083355
    12  H    0.083083
 Sum of Mulliken charges =  -0.00000

 Dipole moment (field-independent basis, Debye):
    X=             -0.0123    Y=             -0.0128    Z=              0.1895  Tot=              0.1903
 Quadrupole moment (field-independent basis, Debye-Ang):
   XX=            -32.0854   YY=            -31.6333   ZZ=            -38.4940
   XY=             -0.6455   XZ=              0.0398   YZ=             -0.1185

 Normal termination of Gaussian 16 at Fri Nov 10 16:14:57 2023.
