 Gaussian 16, Revision B.01,
 Gaussian 16:  EM64L-G16RevB.01 20-Dec-2017

 ---------------------------------
 # TD=(NStates=1) B3LYP/6-31G(d,p)
 ---------------------------------

 -------
 ABSSPCT
 -------
 Symbolic Z-matrix:
 Charge =  0 Multiplicity = 1

                         Standard orientation:
 ---------------------------------------------------------------------
 Center     Atomic      Atomic             Coordinates (Angstroms)
 Number     Number       Type             X           Y           Z
 ---------------------------------------------------------------------
      1          6           0        1.389321    0.144304    0.027644
      2          6           0        0.538341    1.235066   -0.050941
      3          6           0       -0.844815    1.136090   -0.034288
      4          6           0       -1.451729   -0.180200    0.017447
      5          6           0       -0.523334   -1.230370   -0.018458
      6          6           0        0.822828   -1.149488   -0.015904
      7          1           0        2.584401    0.526437    0.175513
      8          1           0        1.556548   -1.943065   -0.053638
      9          1           0       -0.877313   -2.296763    0.087227
     10          1           0       -2.631978   -0.362399    0.060991
     11          1           0       -1.305673    2.183678    0.164072
     12          1           0        1.090343    2.159695    0.012842
 ---------------------------------------------------------------------

 SCF Done:  E(RB3LYP) =  -232.206373924     A.U. after   13 cycles

 Excitation energies and oscillator strengths:

 Excited State   1:      Singlet-A      5.4711 eV  226.62 nm  f=0.0027  <S**2>=0.000
      20 -> 22         0.53426
      21 -> 23        -0.44860
 This state for optimization and/or second-order correction.
 Total Energy, E(TD-HF/TD-DFT) =  -232.005314201
 Copying the excited state density for this state as the 1-particle RhoCI density.

 The electronic state is 1-A.
 Alpha  occ. eigenvalues --  -10.21259 -10.20352 -10.20173 -10.19342 -10.18992
 Alpha  occ. eigenvalues --  -10.18165  -0.85026  -0.74572  -0.73353  -0.60028
 Alpha  occ. eigenvalues --   -0.58598  -0.50962  -0.44445  -0.43712  -0.41250
 Alpha  occ. eigenvalues --   -0.40553  -0.36260  -0.33635  -0.32347  -0.25269
 Alpha  occ. eigenvalues --   -0.24466
 Alpha virt. eigenvalues --   -0.01091   0.00933   0.06126   0.10445   0.13030
 Alpha virt. eigenvalues --    0.14501   0.15970   0.17378   0.19308   0.28471
 Alpha virt. eigenvalues --    0.28955   0.31034   0.33133   0.46756   0.50952

 Mulliken charges:
               1
     1  C   -0.086493
     2  C   -0.062217
     3  C   -0.100558
     4  C   -0.098257
     5  C   -0.089013
     6  C   -0.079554
     7  H    0.071744
     8  H    0.095948
     9  H    0.080320
    10  H    0.097852
    11  H    0.089205
    12  H    0.081023
 Sum of Mulliken charges =  -0.00000

 Dipole moment (field-independent basis, Debye):
    X=              0.0957    Y=              0.0263    Z=              0.2464  Tot=              0.2656
 Quadrupole moment (field-independent basis, Debye-Ang):
   XX=            -31.8186   YY=            -31.9502   ZZ=            -38.8607
   XY=              0.2871   XZ=             -0.1047   YZ=              0.3203

 Normal termination of Gaussian 16 at Fri Nov 10 18:44:44 2023.
