 Gaussian 16, Revision B.01,
 Gaussian 16:  EM64L-G16RevB.01 20-Dec-2017

 ---------------------------------
 # TD=(NStates=1) B3LYP/6-31G(d,p)
 ---------------------------------

 -------
 ABSSPCT
 -------
 Symbolic Z-matrix:
 Charge =  0 Multiplicity = 1

                         Standard orientation:
 ---------------------------------------------------------------------
 Center     Atomic      Atomic             Coordinates (Angstroms)
 Number     Number       Type             X           Y           Z
 ---------------------------------------------------------------------
      1          6           0        0.597529   -1.253218    0.044765
      2          6           0        1.419137   -0.125606   -0.055659
      3          6           0        0.814829    1.116028   -0.054359
      4          6           0       -0.578876    1.204062    0.093581
      5          6           0       -1.408179    0.118436   -0.062835
      6          6           0       -0.803069   -1.083164    0.002996
      7          1           0        0.906861   -2.190821    0.138542
      8          1           0       -1.474055   -1.847275   -0.086136
      9          1           0       -2.613603    0.217667   -0.035025
     10          1           0       -0.982271    2.270835    0.121779
     11          1           0        1.390701    1.882436   -0.032880
     12          1           0        2.524140   -0.192069    0.082788
 ---------------------------------------------------------------------

 SCF Done:  E(RB3LYP) =  -232.208324455     A.U. after   12 cycles

 Excitation energies and oscillator strengths:

 Excited State   1:      Singlet-A      5.5355 eV  223.98 nm  f=0.0012  <S**2>=0.000
      20 -> 22         0.46017
      20 -> 23         0.11146
      21 -> 22        -0.15071
      21 -> 23         0.50269
 This state for optimization and/or second-order correction.
 Total Energy, E(TD-HF/TD-DFT) =  -232.004896901
 Copying the excited state density for this state as the 1-particle RhoCI density.

 The electronic state is 1-A.
 Alpha  occ. eigenvalues --  -10.19191 -10.18982 -10.18970 -10.17991 -10.17538
 Alpha  occ. eigenvalues --  -10.17340  -0.85468  -0.75340  -0.73849  -0.61206
 Alpha  occ. eigenvalues --   -0.59474  -0.52293  -0.46575  -0.43740  -0.41992
 Alpha  occ. eigenvalues --   -0.41387  -0.36527  -0.34063  -0.33325  -0.25442
 Alpha  occ. eigenvalues --   -0.24157
 Alpha virt. eigenvalues --   -0.00179   0.00573   0.08462   0.12990   0.15487
 Alpha virt. eigenvalues --    0.16022   0.17901   0.19472   0.20496   0.29952
 Alpha virt. eigenvalues --    0.30382   0.32583   0.32949   0.46043   0.51880

 Mulliken charges:
               1
     1  C   -0.065379
     2  C   -0.094235
     3  C   -0.053289
     4  C   -0.092816
     5  C   -0.079585
     6  C   -0.077508
     7  H    0.075908
     8  H    0.077163
     9  H    0.081193
    10  H    0.071977
    11  H    0.070690
    12  H    0.085880
 Sum of Mulliken charges =   0.00000

 Dipole moment (field-independent basis, Debye):
    X=              0.0634    Y=             -0.0508    Z=              0.1195  Tot=              0.1445
 Quadrupole moment (field-independent basis, Debye-Ang):
   XX=            -31.2534   YY=            -32.0303   ZZ=            -38.2265
   XY=              0.4741   XZ=              0.3226   YZ=             -0.0271

 Normal termination of Gaussian 16 at Fri Nov 10 18:46:19 2023.
