 Gaussian 16, Revision B.01,
 Gaussian 16:  EM64L-G16RevB.01 20-Dec-2017

 ---------------------------------
 # TD=(NStates=1) B3LYP/6-31G(d,p)
 ---------------------------------

 -------
 ABSSPCT
 -------
 Symbolic Z-matrix:
 Charge =  0 Multiplicity = 1

                         Standard orientation:
 ---------------------------------------------------------------------
 Center     Atomic      Atomic             Coordinates (Angstroms)
 Number     Number       Type             X           Y           Z
 ---------------------------------------------------------------------
      1          6           0        0.277490    1.344624    0.047592
      2          6           0        1.317526    0.470329   -0.020513
      3          6           0        1.100844   -0.916854   -0.049034
      4          6           0       -0.243755   -1.301203    0.050965
      5          6           0       -1.296507   -0.455916   -0.008548
      6          6           0       -1.073320    0.886173   -0.068018
      7          1           0        0.328970    2.438984    0.176198
      8          1           0       -1.799739    1.482963   -0.106112
      9          1           0       -2.613303   -0.831170    0.108385
     10          1           0       -0.568257   -2.333068    0.096515
     11          1           0        1.804478   -1.623461   -0.075638
     12          1           0        2.354182    0.702833    0.085992
 ---------------------------------------------------------------------

 SCF Done:  E(RB3LYP) =  -232.184314397     A.U. after   13 cycles

 Excitation energies and oscillator strengths:

 Excited State   1:      Singlet-A      5.5756 eV  222.37 nm  f=0.0033  <S**2>=0.000
      20 -> 22         0.49355
      20 -> 23         0.13227
      21 -> 22        -0.21838
      21 -> 23         0.43674
 This state for optimization and/or second-order correction.
 Total Energy, E(TD-HF/TD-DFT) =  -231.979413171
 Copying the excited state density for this state as the 1-particle RhoCI density.

 The electronic state is 1-A.
 Alpha  occ. eigenvalues --  -10.20122 -10.19100 -10.18705 -10.18417 -10.18205
 Alpha  occ. eigenvalues --  -10.17311  -0.85609  -0.75174  -0.74196  -0.61939
 Alpha  occ. eigenvalues --   -0.59051  -0.52240  -0.47047  -0.44703  -0.41284
 Alpha  occ. eigenvalues --   -0.40158  -0.36884  -0.35410  -0.31390  -0.25517
 Alpha  occ. eigenvalues --   -0.24406
 Alpha virt. eigenvalues --   -0.00723   0.01183   0.05546   0.12136   0.15303
 Alpha virt. eigenvalues --    0.16401   0.17254   0.19301   0.20481   0.29103
 Alpha virt. eigenvalues --    0.30554   0.32014   0.34189   0.46270   0.52221

 Mulliken charges:
               1
     1  C   -0.086261
     2  C   -0.095031
     3  C   -0.061632
     4  C   -0.095657
     5  C   -0.058286
     6  C   -0.047465
     7  H    0.085395
     8  H    0.063323
     9  H    0.046814
    10  H    0.079474
    11  H    0.084008
    12  H    0.085318
 Sum of Mulliken charges =  -0.00000

 Dipole moment (field-independent basis, Debye):
    X=              0.1631    Y=              0.0787    Z=              0.1381  Tot=              0.2277
 Quadrupole moment (field-independent basis, Debye-Ang):
   XX=            -31.6488   YY=            -31.9799   ZZ=            -38.3056
   XY=             -0.9984   XZ=              0.0342   YZ=              0.1517

 Normal termination of Gaussian 16 at Fri Nov 10 18:27:54 2023.
