 Gaussian 16, Revision B.01,
 Gaussian 16:  EM64L-G16RevB.01 20-Dec-2017

 ---------------------------------
 # TD=(NStates=1) B3LYP/6-31G(d,p)
 ---------------------------------

 -------
 ABSSPCT
 -------
 Symbolic Z-matrix:
 Charge =  0 Multiplicity = 1

                         Standard orientation:
 ---------------------------------------------------------------------
 Center     Atomic      Atomic             Coordinates (Angstroms)
 Number     Number       Type             X           Y           Z
 ---------------------------------------------------------------------
      1          6           0        0.670351    1.319132    0.034334
      2          6           0        1.437501    0.039236   -0.019117
      3          6           0        0.738690   -1.189777   -0.009347
      4          6           0       -0.644239   -1.235005    0.012924
      5          6           0       -1.410200   -0.056735   -0.021961
      6          6           0       -0.779230    1.159133   -0.026908
      7          1           0        1.065963    2.120834    0.100410
      8          1           0       -1.261911    2.187575   -0.059240
      9          1           0       -2.574156   -0.240994    0.141005
     10          1           0       -1.215745   -2.084689   -0.025633
     11          1           0        1.261916   -2.136629    0.077059
     12          1           0        2.646695   -0.061998   -0.053151
 ---------------------------------------------------------------------

 SCF Done:  E(RB3LYP) =  -232.184789714     A.U. after   13 cycles

 Excitation energies and oscillator strengths:

 Excited State   1:      Singlet-A      5.2584 eV  235.78 nm  f=0.0011  <S**2>=0.000
      20 -> 22         0.52771
      21 -> 23        -0.46899
 This state for optimization and/or second-order correction.
 Total Energy, E(TD-HF/TD-DFT) =  -231.991546541
 Copying the excited state density for this state as the 1-particle RhoCI density.

 The electronic state is 1-A.
 Alpha  occ. eigenvalues --  -10.21249 -10.19998 -10.19762 -10.18993 -10.18970
 Alpha  occ. eigenvalues --  -10.18254  -0.83915  -0.74292  -0.73318  -0.61684
 Alpha  occ. eigenvalues --   -0.58557  -0.51178  -0.47647  -0.43311  -0.41469
 Alpha  occ. eigenvalues --   -0.40217  -0.35693  -0.35249  -0.32096  -0.24869
 Alpha  occ. eigenvalues --   -0.24046
 Alpha virt. eigenvalues --   -0.01333   0.00277   0.07996   0.11376   0.14374
 Alpha virt. eigenvalues --    0.15067   0.16163   0.19336   0.19714   0.27392
 Alpha virt. eigenvalues --    0.28279   0.30172   0.33008   0.46617   0.49570

 Mulliken charges:
               1
     1  C   -0.034643
     2  C   -0.105343
     3  C   -0.074968
     4  C   -0.067287
     5  C   -0.085387
     6  C   -0.100847
     7  H    0.051359
     8  H    0.083005
     9  H    0.083551
    10  H    0.083299
    11  H    0.087053
    12  H    0.080207
 Sum of Mulliken charges =  -0.00000

 Dipole moment (field-independent basis, Debye):
    X=             -0.0093    Y=             -0.0668    Z=              0.1197  Tot=              0.1374
 Quadrupole moment (field-independent basis, Debye-Ang):
   XX=            -31.9534   YY=            -31.1310   ZZ=            -38.7735
   XY=              0.4819   XZ=             -0.1274   YZ=             -0.0196

 Normal termination of Gaussian 16 at Fri Nov 10 18:01:08 2023.
