 Gaussian 16, Revision B.01,
 Gaussian 16:  EM64L-G16RevB.01 20-Dec-2017

 ---------------------------------
 # TD=(NStates=1) B3LYP/6-31G(d,p)
 ---------------------------------

 -------
 ABSSPCT
 -------
 Symbolic Z-matrix:
 Charge =  0 Multiplicity = 1

                         Standard orientation:
 ---------------------------------------------------------------------
 Center     Atomic      Atomic             Coordinates (Angstroms)
 Number     Number       Type             X           Y           Z
 ---------------------------------------------------------------------
      1          6           0        1.335814   -0.580858   -0.044195
      2          6           0        1.163869    0.796091    0.001048
      3          6           0       -0.142188    1.366586    0.039136
      4          6           0       -1.288008    0.597767   -0.062075
      5          6           0       -1.199994   -0.822203   -0.003451
      6          6           0        0.114241   -1.324715    0.008926
      7          1           0        2.159857   -1.108560    0.140033
      8          1           0        0.414958   -2.299315    0.008980
      9          1           0       -1.950992   -1.752243    0.132296
     10          1           0       -2.418680    1.129757    0.029017
     11          1           0       -0.174329    2.406190    0.097507
     12          1           0        2.066782    1.428165   -0.044165
 ---------------------------------------------------------------------

 SCF Done:  E(RB3LYP) =  -232.199470913     A.U. after   13 cycles

 Excitation energies and oscillator strengths:

 Excited State   1:      Singlet-A      5.3443 eV  231.99 nm  f=0.0038  <S**2>=0.000
      20 -> 22         0.10070
      20 -> 23         0.43503
      21 -> 22         0.53778
      21 -> 23        -0.10497
 This state for optimization and/or second-order correction.
 Total Energy, E(TD-HF/TD-DFT) =  -232.003071783
 Copying the excited state density for this state as the 1-particle RhoCI density.

 The electronic state is 1-A.
 Alpha  occ. eigenvalues --  -10.21319 -10.20762 -10.19343 -10.18894 -10.18006
 Alpha  occ. eigenvalues --  -10.17904  -0.84392  -0.74457  -0.73583  -0.60232
 Alpha  occ. eigenvalues --   -0.59535  -0.51329  -0.46043  -0.44002  -0.41604
 Alpha  occ. eigenvalues --   -0.40697  -0.35797  -0.33531  -0.32624  -0.25013
 Alpha  occ. eigenvalues --   -0.24275
 Alpha virt. eigenvalues --   -0.00669   0.00002   0.07169   0.11919   0.13335
 Alpha virt. eigenvalues --    0.15349   0.15668   0.18168   0.21507   0.27869
 Alpha virt. eigenvalues --    0.29149   0.31186   0.32040   0.46484   0.49493

 Mulliken charges:
               1
     1  C   -0.069438
     2  C   -0.096029
     3  C   -0.064142
     4  C   -0.108351
     5  C   -0.082261
     6  C   -0.081509
     7  H    0.085493
     8  H    0.072995
     9  H    0.098826
    10  H    0.074364
    11  H    0.088037
    12  H    0.082015
 Sum of Mulliken charges =  -0.00000

 Dipole moment (field-independent basis, Debye):
    X=              0.2824    Y=             -0.1443    Z=              0.2324  Tot=              0.3932
 Quadrupole moment (field-independent basis, Debye-Ang):
   XX=            -31.9863   YY=            -31.3836   ZZ=            -38.7075
   XY=             -0.1465   XZ=             -0.0834   YZ=             -0.1860

 Normal termination of Gaussian 16 at Fri Nov 10 16:47:51 2023.
