 Gaussian 16, Revision B.01,
 Gaussian 16:  EM64L-G16RevB.01 20-Dec-2017

 ---------------------------------
 # TD=(NStates=1) B3LYP/6-31G(d,p)
 ---------------------------------

 -------
 ABSSPCT
 -------
 Symbolic Z-matrix:
 Charge =  0 Multiplicity = 1

                         Standard orientation:
 ---------------------------------------------------------------------
 Center     Atomic      Atomic             Coordinates (Angstroms)
 Number     Number       Type             X           Y           Z
 ---------------------------------------------------------------------
      1          6           0       -0.846764   -1.108757   -0.041352
      2          6           0       -1.469918    0.140638    0.054919
      3          6           0       -0.551945    1.314269   -0.003994
      4          6           0        0.858959    1.123559   -0.010684
      5          6           0        1.357423   -0.163805   -0.059324
      6          6           0        0.595195   -1.275559    0.039192
      7          1           0       -1.548370   -2.044856    0.065777
      8          1           0        1.094945   -2.097168   -0.101146
      9          1           0        2.557513   -0.368276    0.168469
     10          1           0        1.728226    1.730228    0.131719
     11          1           0       -1.015056    2.445474   -0.086701
     12          1           0       -2.474947    0.152532   -0.050663
 ---------------------------------------------------------------------

 SCF Done:  E(RB3LYP) =  -232.181894186     A.U. after   13 cycles

 Excitation energies and oscillator strengths:

 Excited State   1:      Singlet-A      5.2755 eV  235.02 nm  f=0.0004  <S**2>=0.000
      20 -> 22         0.49138
      21 -> 22        -0.11922
      21 -> 23         0.48724
 This state for optimization and/or second-order correction.
 Total Energy, E(TD-HF/TD-DFT) =  -231.988024134
 Copying the excited state density for this state as the 1-particle RhoCI density.

 The electronic state is 1-A.
 Alpha  occ. eigenvalues --  -10.22149 -10.20528 -10.19746 -10.19341 -10.19192
 Alpha  occ. eigenvalues --  -10.17829  -0.84361  -0.74690  -0.73388  -0.60866
 Alpha  occ. eigenvalues --   -0.58494  -0.51951  -0.44499  -0.43989  -0.42283
 Alpha  occ. eigenvalues --   -0.40326  -0.36141  -0.33314  -0.32495  -0.25349
 Alpha  occ. eigenvalues --   -0.24261
 Alpha virt. eigenvalues --   -0.01443  -0.00230   0.07153   0.11803   0.12837
 Alpha virt. eigenvalues --    0.14219   0.15639   0.18064   0.20090   0.26619
 Alpha virt. eigenvalues --    0.28192   0.31040   0.32661   0.44715   0.47980

 Mulliken charges:
               1
     1  C   -0.107118
     2  C   -0.067101
     3  C   -0.118734
     4  C   -0.053162
     5  C   -0.102739
     6  C   -0.042890
     7  H    0.076682
     8  H    0.080902
     9  H    0.060984
    10  H    0.097356
    11  H    0.080452
    12  H    0.095369
 Sum of Mulliken charges =  -0.00000

 Dipole moment (field-independent basis, Debye):
    X=             -0.0242    Y=             -0.1145    Z=              0.0559  Tot=              0.1297
 Quadrupole moment (field-independent basis, Debye-Ang):
   XX=            -31.0435   YY=            -32.7559   ZZ=            -38.8037
   XY=             -0.0146   XZ=              0.5202   YZ=              0.0535

 Normal termination of Gaussian 16 at Fri Nov 10 17:58:06 2023.
