 Gaussian 16, Revision B.01,
 Gaussian 16:  EM64L-G16RevB.01 20-Dec-2017

 ---------------------------------
 # TD=(NStates=1) B3LYP/6-31G(d,p)
 ---------------------------------

 -------
 ABSSPCT
 -------
 Symbolic Z-matrix:
 Charge =  0 Multiplicity = 1

                         Standard orientation:
 ---------------------------------------------------------------------
 Center     Atomic      Atomic             Coordinates (Angstroms)
 Number     Number       Type             X           Y           Z
 ---------------------------------------------------------------------
      1          6           0       -0.864288    1.078620   -0.043133
      2          6           0        0.534120    1.282478    0.002290
      3          6           0        1.457174    0.130513   -0.015739
      4          6           0        0.900350   -1.070870    0.036986
      5          6           0       -0.556349   -1.222535   -0.098062
      6          6           0       -1.449056   -0.192254    0.048384
      7          1           0       -1.399742    1.868821    0.174316
      8          1           0       -2.579078   -0.345166    0.087134
      9          1           0       -0.984203   -2.212233    0.015301
     10          1           0        1.520368   -1.981093    0.154815
     11          1           0        2.442456    0.411476    0.039615
     12          1           0        0.868494    2.222480   -0.055542
 ---------------------------------------------------------------------

 SCF Done:  E(RB3LYP) =  -232.211445573     A.U. after   13 cycles

 Excitation energies and oscillator strengths:

 Excited State   1:      Singlet-A      5.3804 eV  230.44 nm  f=0.0019  <S**2>=0.000
      20 -> 22         0.46546
      21 -> 22        -0.12968
      21 -> 23         0.51110
 This state for optimization and/or second-order correction.
 Total Energy, E(TD-HF/TD-DFT) =  -232.013720069
 Copying the excited state density for this state as the 1-particle RhoCI density.

 The electronic state is 1-A.
 Alpha  occ. eigenvalues --  -10.19301 -10.19260 -10.18928 -10.18368 -10.18331
 Alpha  occ. eigenvalues --  -10.17488  -0.84332  -0.75224  -0.73141  -0.60502
 Alpha  occ. eigenvalues --   -0.59624  -0.52044  -0.47054  -0.43941  -0.42634
 Alpha  occ. eigenvalues --   -0.40332  -0.35867  -0.34476  -0.32776  -0.25621
 Alpha  occ. eigenvalues --   -0.23509
 Alpha virt. eigenvalues --   -0.00942   0.00586   0.09669   0.13911   0.14501
 Alpha virt. eigenvalues --    0.16150   0.17758   0.18522   0.20728   0.27262
 Alpha virt. eigenvalues --    0.29928   0.31419   0.32993   0.46673   0.47865

 Mulliken charges:
               1
     1  C   -0.072552
     2  C   -0.096274
     3  C   -0.056869
     4  C   -0.092498
     5  C   -0.094528
     6  C   -0.081835
     7  H    0.073711
     8  H    0.092431
     9  H    0.077432
    10  H    0.086800
    11  H    0.085185
    12  H    0.078997
 Sum of Mulliken charges =  -0.00000

 Dipole moment (field-independent basis, Debye):
    X=              0.0453    Y=              0.1131    Z=              0.2605  Tot=              0.2876
 Quadrupole moment (field-independent basis, Debye-Ang):
   XX=            -30.9216   YY=            -31.9501   ZZ=            -38.3566
   XY=              0.3276   XZ=             -0.1835   YZ=             -0.1159

 Normal termination of Gaussian 16 at Fri Nov 10 18:55:45 2023.
