 Gaussian 16, Revision B.01,
 Gaussian 16:  EM64L-G16RevB.01 20-Dec-2017

 ---------------------------------
 # TD=(NStates=1) B3LYP/6-31G(d,p)
 ---------------------------------

 -------
 ABSSPCT
 -------
 Symbolic Z-matrix:
 Charge =  0 Multiplicity = 1

                         Standard orientation:
 ---------------------------------------------------------------------
 Center     Atomic      Atomic             Coordinates (Angstroms)
 Number     Number       Type             X           Y           Z
 ---------------------------------------------------------------------
      1          6           0        1.150318   -0.868222   -0.022255
      2          6           0       -0.151139   -1.357812    0.030300
      3          6           0       -1.308022   -0.516874   -0.009377
      4          6           0       -1.134099    0.835708   -0.037320
      5          6           0        0.173998    1.339240    0.046434
      6          6           0        1.283004    0.542421   -0.010966
      7          1           0        2.134256   -1.272596   -0.072146
      8          1           0        2.259008    1.011267   -0.037308
      9          1           0        0.307973    2.398446    0.027858
     10          1           0       -2.056335    1.404836    0.070249
     11          1           0       -2.293883   -1.035181   -0.148975
     12          1           0       -0.435377   -2.353544    0.179420
 ---------------------------------------------------------------------

 SCF Done:  E(RB3LYP) =  -232.235011188     A.U. after   12 cycles

 Excitation energies and oscillator strengths:

 Excited State   1:      Singlet-A      5.4853 eV  226.03 nm  f=0.0012  <S**2>=0.000
      20 -> 22         0.32223
      20 -> 23         0.34382
      21 -> 22         0.39709
      21 -> 23        -0.34617
 This state for optimization and/or second-order correction.
 Total Energy, E(TD-HF/TD-DFT) =  -232.033428436
 Copying the excited state density for this state as the 1-particle RhoCI density.

 The electronic state is 1-A.
 Alpha  occ. eigenvalues --  -10.19025 -10.18925 -10.18770 -10.18560 -10.18375
 Alpha  occ. eigenvalues --  -10.18173  -0.84854  -0.74665  -0.73759  -0.60985
 Alpha  occ. eigenvalues --   -0.59002  -0.51971  -0.46328  -0.44410  -0.41573
 Alpha  occ. eigenvalues --   -0.40781  -0.36308  -0.34544  -0.32600  -0.25015
 Alpha  occ. eigenvalues --   -0.24346
 Alpha virt. eigenvalues --   -0.00037   0.00276   0.09020   0.13674   0.14944
 Alpha virt. eigenvalues --    0.16074   0.17016   0.19150   0.19774   0.27989
 Alpha virt. eigenvalues --    0.30631   0.31632   0.33230   0.46077   0.51953

 Mulliken charges:
               1
     1  C   -0.065137
     2  C   -0.098174
     3  C   -0.087290
     4  C   -0.085251
     5  C   -0.077146
     6  C   -0.095976
     7  H    0.090848
     8  H    0.085168
     9  H    0.078184
    10  H    0.086569
    11  H    0.087777
    12  H    0.080428
 Sum of Mulliken charges =  -0.00000

 Dipole moment (field-independent basis, Debye):
    X=              0.0257    Y=              0.0385    Z=              0.0098  Tot=              0.0473
 Quadrupole moment (field-independent basis, Debye-Ang):
   XX=            -30.6419   YY=            -32.5659   ZZ=            -38.3995
   XY=              0.4948   XZ=             -0.1214   YZ=             -0.0436

 Normal termination of Gaussian 16 at Fri Nov 10 17:35:30 2023.
