 Gaussian 16, Revision B.01,
 Gaussian 16:  EM64L-G16RevB.01 20-Dec-2017

 ---------------------------------
 # TD=(NStates=1) B3LYP/6-31G(d,p)
 ---------------------------------

 -------
 ABSSPCT
 -------
 Symbolic Z-matrix:
 Charge =  0 Multiplicity = 1

                         Standard orientation:
 ---------------------------------------------------------------------
 Center     Atomic      Atomic             Coordinates (Angstroms)
 Number     Number       Type             X           Y           Z
 ---------------------------------------------------------------------
      1          6           0       -1.387564   -0.056983    0.117226
      2          6           0       -0.644286   -1.162976   -0.061213
      3          6           0        0.681596   -1.155556   -0.024120
      4          6           0        1.390545   -0.019866   -0.014553
      5          6           0        0.692895    1.229235   -0.046365
      6          6           0       -0.726459    1.148701   -0.011104
      7          1           0       -2.485033   -0.073082   -0.039951
      8          1           0       -1.376308    2.242221   -0.128807
      9          1           0        1.372440    2.175187    0.071283
     10          1           0        2.516645   -0.128088    0.354902
     11          1           0        1.175287   -2.089163   -0.076288
     12          1           0       -1.243395   -2.022406    0.059637
 ---------------------------------------------------------------------

 SCF Done:  E(RB3LYP) =  -232.197241503     A.U. after   13 cycles

 Excitation energies and oscillator strengths:

 Excited State   1:      Singlet-A      5.5447 eV  223.61 nm  f=0.0021  <S**2>=0.000
      20 -> 22         0.38969
      20 -> 23         0.27893
      21 -> 22         0.35945
      21 -> 23        -0.37489
 This state for optimization and/or second-order correction.
 Total Energy, E(TD-HF/TD-DFT) =  -231.993478726
 Copying the excited state density for this state as the 1-particle RhoCI density.

 The electronic state is 1-A.
 Alpha  occ. eigenvalues --  -10.20870 -10.20436 -10.19565 -10.18477 -10.17369
 Alpha  occ. eigenvalues --  -10.17278  -0.86463  -0.75019  -0.74099  -0.60004
 Alpha  occ. eigenvalues --   -0.59146  -0.51758  -0.45601  -0.43066  -0.41602
 Alpha  occ. eigenvalues --   -0.40357  -0.37118  -0.34211  -0.31988  -0.25441
 Alpha  occ. eigenvalues --   -0.24878
 Alpha virt. eigenvalues --   -0.00599   0.00408   0.06555   0.11396   0.13218
 Alpha virt. eigenvalues --    0.14746   0.16442   0.18309   0.19806   0.28917
 Alpha virt. eigenvalues --    0.30140   0.33037   0.34562   0.45060   0.49449

 Mulliken charges:
               1
     1  C   -0.085661
     2  C   -0.071933
     3  C   -0.054370
     4  C   -0.095027
     5  C   -0.097787
     6  C   -0.085888
     7  H    0.091261
     8  H    0.061629
     9  H    0.093012
    10  H    0.082659
    11  H    0.081585
    12  H    0.080520
 Sum of Mulliken charges =  -0.00000

 Dipole moment (field-independent basis, Debye):
    X=             -0.0034    Y=             -0.2509    Z=              0.1399  Tot=              0.2873
 Quadrupole moment (field-independent basis, Debye-Ang):
   XX=            -31.7361   YY=            -32.6098   ZZ=            -38.3699
   XY=              0.3219   XZ=              0.8723   YZ=             -0.0812

 Normal termination of Gaussian 16 at Fri Nov 10 19:00:02 2023.
