 Gaussian 16, Revision B.01,
 Gaussian 16:  EM64L-G16RevB.01 20-Dec-2017

 ---------------------------------
 # TD=(NStates=1) B3LYP/6-31G(d,p)
 ---------------------------------

 -------
 ABSSPCT
 -------
 Symbolic Z-matrix:
 Charge =  0 Multiplicity = 1

                         Standard orientation:
 ---------------------------------------------------------------------
 Center     Atomic      Atomic             Coordinates (Angstroms)
 Number     Number       Type             X           Y           Z
 ---------------------------------------------------------------------
      1          6           0       -1.422226    0.192054   -0.028586
      2          6           0       -0.835469   -1.109140    0.040260
      3          6           0        0.509361   -1.300788    0.031971
      4          6           0        1.394071   -0.220984    0.002192
      5          6           0        0.885919    1.157470   -0.025560
      6          6           0       -0.508849    1.257140   -0.031306
      7          1           0       -2.526747    0.304363   -0.057929
      8          1           0       -1.002416    2.259961    0.227761
      9          1           0        1.513800    1.905168    0.108048
     10          1           0        2.471158   -0.339977   -0.095317
     11          1           0        1.039386   -2.217206   -0.057611
     12          1           0       -1.632027   -1.766820   -0.058774
 ---------------------------------------------------------------------

 SCF Done:  E(RB3LYP) =  -232.219315212     A.U. after   13 cycles

 Excitation energies and oscillator strengths:

 Excited State   1:      Singlet-A      5.3165 eV  233.21 nm  f=0.0012  <S**2>=0.000
      20 -> 22         0.51233
      21 -> 22        -0.12769
      21 -> 23        -0.46228
 This state for optimization and/or second-order correction.
 Total Energy, E(TD-HF/TD-DFT) =  -232.023938331
 Copying the excited state density for this state as the 1-particle RhoCI density.

 The electronic state is 1-A.
 Alpha  occ. eigenvalues --  -10.19397 -10.19316 -10.19246 -10.18620 -10.18598
 Alpha  occ. eigenvalues --  -10.18456  -0.84315  -0.74280  -0.73774  -0.60883
 Alpha  occ. eigenvalues --   -0.59238  -0.51905  -0.46782  -0.44880  -0.41252
 Alpha  occ. eigenvalues --   -0.40836  -0.36160  -0.35325  -0.31331  -0.24982
 Alpha  occ. eigenvalues --   -0.23978
 Alpha virt. eigenvalues --   -0.01107   0.00496   0.09226   0.13806   0.14778
 Alpha virt. eigenvalues --    0.15251   0.17562   0.19189   0.19646   0.27307
 Alpha virt. eigenvalues --    0.28322   0.31564   0.33939   0.46181   0.50476

 Mulliken charges:
               1
     1  C   -0.095121
     2  C   -0.077930
     3  C   -0.063198
     4  C   -0.113574
     5  C   -0.060679
     6  C   -0.092513
     7  H    0.095372
     8  H    0.069565
     9  H    0.082752
    10  H    0.086594
    11  H    0.086477
    12  H    0.082255
 Sum of Mulliken charges =  -0.00000

 Dipole moment (field-independent basis, Debye):
    X=              0.0282    Y=             -0.0546    Z=              0.0295  Tot=              0.0681
 Quadrupole moment (field-independent basis, Debye-Ang):
   XX=            -30.3822   YY=            -32.7875   ZZ=            -38.4823
   XY=              0.2540   XZ=             -0.0567   YZ=              0.7594

 Normal termination of Gaussian 16 at Fri Nov 10 16:28:37 2023.
