 Gaussian 16, Revision B.01,
 Gaussian 16:  EM64L-G16RevB.01 20-Dec-2017

 ---------------------------------
 # TD=(NStates=1) B3LYP/6-31G(d,p)
 ---------------------------------

 -------
 ABSSPCT
 -------
 Symbolic Z-matrix:
 Charge =  0 Multiplicity = 1

                         Standard orientation:
 ---------------------------------------------------------------------
 Center     Atomic      Atomic             Coordinates (Angstroms)
 Number     Number       Type             X           Y           Z
 ---------------------------------------------------------------------
      1          6           0        0.607751    1.190734   -0.005537
      2          6           0        1.409699    0.054616   -0.046945
      3          6           0        0.718883   -1.134851    0.000114
      4          6           0       -0.603910   -1.186802    0.035292
      5          6           0       -1.398761   -0.085447   -0.047615
      6          6           0       -0.752267    1.132508    0.007604
      7          1           0        1.334418    2.183917   -0.032423
      8          1           0       -1.376362    2.159730    0.205658
      9          1           0       -2.454490    0.009737   -0.059399
     10          1           0       -1.057057   -2.239557    0.049134
     11          1           0        1.182421   -2.086083    0.026105
     12          1           0        2.482700    0.147710    0.153445
 ---------------------------------------------------------------------

 SCF Done:  E(RB3LYP) =  -232.212840512     A.U. after   13 cycles

 Excitation energies and oscillator strengths:

 Excited State   1:      Singlet-A      5.7290 eV  216.41 nm  f=0.0041  <S**2>=0.000
      20 -> 22         0.55016
      21 -> 23         0.44321
 This state for optimization and/or second-order correction.
 Total Energy, E(TD-HF/TD-DFT) =  -232.002302366
 Copying the excited state density for this state as the 1-particle RhoCI density.

 The electronic state is 1-A.
 Alpha  occ. eigenvalues --  -10.19627 -10.19550 -10.18662 -10.18484 -10.18356
 Alpha  occ. eigenvalues --  -10.17539  -0.86601  -0.75042  -0.74522  -0.60784
 Alpha  occ. eigenvalues --   -0.58756  -0.52026  -0.45597  -0.44087  -0.41618
 Alpha  occ. eigenvalues --   -0.39864  -0.37327  -0.34884  -0.31670  -0.25422
 Alpha  occ. eigenvalues --   -0.25097
 Alpha virt. eigenvalues --   -0.00337   0.01419   0.06514   0.11997   0.12897
 Alpha virt. eigenvalues --    0.16355   0.17957   0.18008   0.19632   0.29880
 Alpha virt. eigenvalues --    0.30684   0.32949   0.34633   0.45574   0.51702

 Mulliken charges:
               1
     1  C   -0.080967
     2  C   -0.085058
     3  C   -0.067936
     4  C   -0.079300
     5  C   -0.075813
     6  C   -0.092990
     7  H    0.067865
     8  H    0.076973
     9  H    0.091165
    10  H    0.074610
    11  H    0.078135
    12  H    0.093317
 Sum of Mulliken charges =  -0.00000

 Dipole moment (field-independent basis, Debye):
    X=              0.0040    Y=             -0.1474    Z=              0.1857  Tot=              0.2371
 Quadrupole moment (field-independent basis, Debye-Ang):
   XX=            -31.4522   YY=            -32.6815   ZZ=            -38.3249
   XY=             -0.1535   XZ=              0.2014   YZ=              0.1877

 Normal termination of Gaussian 16 at Fri Nov 10 18:40:34 2023.
