 Gaussian 16, Revision B.01,
 Gaussian 16:  EM64L-G16RevB.01 20-Dec-2017

 ---------------------------------
 # TD=(NStates=1) B3LYP/6-31G(d,p)
 ---------------------------------

 -------
 ABSSPCT
 -------
 Symbolic Z-matrix:
 Charge =  0 Multiplicity = 1

                         Standard orientation:
 ---------------------------------------------------------------------
 Center     Atomic      Atomic             Coordinates (Angstroms)
 Number     Number       Type             X           Y           Z
 ---------------------------------------------------------------------
      1          6           0       -0.675179    1.215526   -0.017261
      2          6           0        0.645591    1.215106    0.021034
      3          6           0        1.438426   -0.060686    0.012893
      4          6           0        0.635140   -1.188126   -0.060484
      5          6           0       -0.733971   -1.149739    0.023959
      6          6           0       -1.378624    0.011845   -0.037397
      7          1           0       -1.057818    2.072768    0.188497
      8          1           0       -2.454981   -0.075713    0.045192
      9          1           0       -1.382785   -1.994362    0.053588
     10          1           0        1.381608   -2.088805    0.138130
     11          1           0        2.538452   -0.077966    0.061817
     12          1           0        1.387226    1.900521   -0.143686
 ---------------------------------------------------------------------

 SCF Done:  E(RB3LYP) =  -232.187020813     A.U. after   13 cycles

 Excitation energies and oscillator strengths:

 Excited State   1:      Singlet-A      5.5497 eV  223.41 nm  f=0.0007  <S**2>=0.000
      20 -> 22         0.50391
      21 -> 22         0.12357
      21 -> 23        -0.47433
 This state for optimization and/or second-order correction.
 Total Energy, E(TD-HF/TD-DFT) =  -231.983073983
 Copying the excited state density for this state as the 1-particle RhoCI density.

 The electronic state is 1-A.
 Alpha  occ. eigenvalues --  -10.19165 -10.19088 -10.18188 -10.17938 -10.17874
 Alpha  occ. eigenvalues --  -10.17063  -0.85764  -0.75404  -0.74294  -0.60780
 Alpha  occ. eigenvalues --   -0.59921  -0.52806  -0.46355  -0.45101  -0.41777
 Alpha  occ. eigenvalues --   -0.40810  -0.36818  -0.35837  -0.29991  -0.25393
 Alpha  occ. eigenvalues --   -0.24377
 Alpha virt. eigenvalues --   -0.00434   0.00765   0.08679   0.13640   0.14235
 Alpha virt. eigenvalues --    0.16673   0.18122   0.19563   0.19727   0.27152
 Alpha virt. eigenvalues --    0.30204   0.32343   0.34803   0.46063   0.50732

 Mulliken charges:
               1
     1  C   -0.060040
     2  C   -0.083818
     3  C   -0.115291
     4  C   -0.079921
     5  C   -0.065908
     6  C   -0.087301
     7  H    0.078123
     8  H    0.082879
     9  H    0.084380
    10  H    0.065415
    11  H    0.095943
    12  H    0.085538
 Sum of Mulliken charges =  -0.00000

 Dipole moment (field-independent basis, Debye):
    X=              0.0377    Y=              0.1201    Z=              0.1983  Tot=              0.2349
 Quadrupole moment (field-independent basis, Debye-Ang):
   XX=            -30.4405   YY=            -33.1903   ZZ=            -38.0910
   XY=              0.5844   XZ=             -0.2048   YZ=             -0.1757

 Normal termination of Gaussian 16 at Fri Nov 10 18:40:44 2023.
