 Gaussian 16, Revision B.01,
 Gaussian 16:  EM64L-G16RevB.01 20-Dec-2017

 ---------------------------------
 # TD=(NStates=1) B3LYP/6-31G(d,p)
 ---------------------------------

 -------
 ABSSPCT
 -------
 Symbolic Z-matrix:
 Charge =  0 Multiplicity = 1

                         Standard orientation:
 ---------------------------------------------------------------------
 Center     Atomic      Atomic             Coordinates (Angstroms)
 Number     Number       Type             X           Y           Z
 ---------------------------------------------------------------------
      1          6           0        1.261948    0.719790   -0.018853
      2          6           0        1.219391   -0.668895    0.065213
      3          6           0        0.008670   -1.418811   -0.044102
      4          6           0       -1.180269   -0.708622   -0.013150
      5          6           0       -1.294166    0.654102    0.091032
      6          6           0        0.001280    1.381555   -0.011096
      7          1           0        2.238723    1.153188   -0.077770
      8          1           0       -0.053728    2.588698   -0.138821
      9          1           0       -2.287062    1.244180   -0.064729
     10          1           0       -2.144638   -1.100853   -0.124536
     11          1           0       -0.090356   -2.471143   -0.022389
     12          1           0        2.235935   -1.168784    0.013976
 ---------------------------------------------------------------------

 SCF Done:  E(RB3LYP) =  -232.218186955     A.U. after   13 cycles

 Excitation energies and oscillator strengths:

 Excited State   1:      Singlet-A      5.3287 eV  232.67 nm  f=0.0014  <S**2>=0.000
      20 -> 22         0.49375
      21 -> 22        -0.14321
      21 -> 23        -0.47882
 This state for optimization and/or second-order correction.
 Total Energy, E(TD-HF/TD-DFT) =  -232.022361331
 Copying the excited state density for this state as the 1-particle RhoCI density.

 The electronic state is 1-A.
 Alpha  occ. eigenvalues --  -10.21231 -10.20190 -10.19833 -10.19333 -10.19103
 Alpha  occ. eigenvalues --  -10.18257  -0.84211  -0.74950  -0.72443  -0.60275
 Alpha  occ. eigenvalues --   -0.58538  -0.51166  -0.45733  -0.43331  -0.42043
 Alpha  occ. eigenvalues --   -0.40635  -0.35668  -0.33907  -0.32606  -0.25430
 Alpha  occ. eigenvalues --   -0.23810
 Alpha virt. eigenvalues --   -0.01355   0.00517   0.07736   0.12664   0.13557
 Alpha virt. eigenvalues --    0.14532   0.16106   0.18170   0.18928   0.26640
 Alpha virt. eigenvalues --    0.29070   0.31299   0.32176   0.45246   0.48991

 Mulliken charges:
               1
     1  C   -0.060027
     2  C   -0.105654
     3  C   -0.070526
     4  C   -0.077082
     5  C   -0.091194
     6  C   -0.110235
     7  H    0.095881
     8  H    0.069783
     9  H    0.094945
    10  H    0.082342
    11  H    0.091387
    12  H    0.080380
 Sum of Mulliken charges =  -0.00000

 Dipole moment (field-independent basis, Debye):
    X=             -0.0276    Y=             -0.0843    Z=             -0.2531  Tot=              0.2682
 Quadrupole moment (field-independent basis, Debye-Ang):
   XX=            -30.8048   YY=            -32.5047   ZZ=            -38.8666
   XY=              0.0256   XZ=              0.2316   YZ=             -0.2902

 Normal termination of Gaussian 16 at Fri Nov 10 18:42:15 2023.
