 Gaussian 16, Revision B.01,
 Gaussian 16:  EM64L-G16RevB.01 20-Dec-2017

 ---------------------------------
 # TD=(NStates=1) B3LYP/6-31G(d,p)
 ---------------------------------

 -------
 ABSSPCT
 -------
 Symbolic Z-matrix:
 Charge =  0 Multiplicity = 1

                         Standard orientation:
 ---------------------------------------------------------------------
 Center     Atomic      Atomic             Coordinates (Angstroms)
 Number     Number       Type             X           Y           Z
 ---------------------------------------------------------------------
      1          6           0        1.349896   -0.430653   -0.043664
      2          6           0        0.319828   -1.388077   -0.023305
      3          6           0       -1.070253   -0.932894    0.034764
      4          6           0       -1.336055    0.407450   -0.021958
      5          6           0       -0.302403    1.337343   -0.022038
      6          6           0        1.065481    1.009777    0.032521
      7          1           0        2.284899   -0.782791    0.008469
      8          1           0        1.914847    1.629612    0.267965
      9          1           0       -0.720487    2.455302   -0.180111
     10          1           0       -2.430222    0.809816    0.075748
     11          1           0       -1.765858   -1.767591    0.142301
     12          1           0        0.557852   -2.362017   -0.052290
 ---------------------------------------------------------------------

 SCF Done:  E(RB3LYP) =  -232.216942198     A.U. after   13 cycles

 Excitation energies and oscillator strengths:

 Excited State   1:      Singlet-A      5.2792 eV  234.86 nm  f=0.0009  <S**2>=0.000
      20 -> 22         0.50791
      20 -> 23         0.10218
      21 -> 22        -0.13169
      21 -> 23         0.46247
 This state for optimization and/or second-order correction.
 Total Energy, E(TD-HF/TD-DFT) =  -232.022936972
 Copying the excited state density for this state as the 1-particle RhoCI density.

 The electronic state is 1-A.
 Alpha  occ. eigenvalues --  -10.20295 -10.19971 -10.19563 -10.19352 -10.18590
 Alpha  occ. eigenvalues --  -10.18476  -0.83903  -0.74133  -0.73322  -0.60400
 Alpha  occ. eigenvalues --   -0.59224  -0.51351  -0.46613  -0.43648  -0.41618
 Alpha  occ. eigenvalues --   -0.41040  -0.35998  -0.33690  -0.32755  -0.24752
 Alpha  occ. eigenvalues --   -0.24121
 Alpha virt. eigenvalues --   -0.01057   0.00195   0.07938   0.13683   0.14274
 Alpha virt. eigenvalues --    0.15219   0.16369   0.17601   0.20352   0.27642
 Alpha virt. eigenvalues --    0.28325   0.31434   0.32071   0.46971   0.50340

 Mulliken charges:
               1
     1  C   -0.087419
     2  C   -0.074391
     3  C   -0.088263
     4  C   -0.073147
     5  C   -0.091425
     6  C   -0.090613
     7  H    0.077814
     8  H    0.099506
     9  H    0.074360
    10  H    0.085883
    11  H    0.088035
    12  H    0.079661
 Sum of Mulliken charges =  -0.00000

 Dipole moment (field-independent basis, Debye):
    X=              0.1430    Y=             -0.2472    Z=              0.1909  Tot=              0.3435
 Quadrupole moment (field-independent basis, Debye-Ang):
   XX=            -31.3545   YY=            -31.7323   ZZ=            -38.6723
   XY=             -0.1333   XZ=              0.2208   YZ=             -0.0051

 Normal termination of Gaussian 16 at Fri Nov 10 19:00:52 2023.
