 Gaussian 16, Revision B.01,
 Gaussian 16:  EM64L-G16RevB.01 20-Dec-2017

 ---------------------------------
 # TD=(NStates=1) B3LYP/6-31G(d,p)
 ---------------------------------

 -------
 ABSSPCT
 -------
 Symbolic Z-matrix:
 Charge =  0 Multiplicity = 1

                         Standard orientation:
 ---------------------------------------------------------------------
 Center     Atomic      Atomic             Coordinates (Angstroms)
 Number     Number       Type             X           Y           Z
 ---------------------------------------------------------------------
      1          6           0       -0.524344   -1.275007    0.055145
      2          6           0       -1.446416   -0.193468   -0.027980
      3          6           0       -0.846720    1.040430   -0.042769
      4          6           0        0.511426    1.276728   -0.014622
      5          6           0        1.335043    0.219792    0.075832
      6          6           0        0.914185   -1.087016   -0.093970
      7          1           0       -0.794480   -2.269863    0.000038
      8          1           0        1.646280   -1.833673   -0.075059
      9          1           0        2.520625    0.288062    0.143070
     10          1           0        0.929284    2.384574   -0.000355
     11          1           0       -1.464142    1.940025   -0.014495
     12          1           0       -2.496610   -0.397885    0.236988
 ---------------------------------------------------------------------

 SCF Done:  E(RB3LYP) =  -232.218671700     A.U. after   13 cycles

 Excitation energies and oscillator strengths:

 Excited State   1:      Singlet-A      5.4619 eV  227.00 nm  f=0.0004  <S**2>=0.000
      20 -> 22         0.48229
      21 -> 23         0.51596
 This state for optimization and/or second-order correction.
 Total Energy, E(TD-HF/TD-DFT) =  -232.017950145
 Copying the excited state density for this state as the 1-particle RhoCI density.

 The electronic state is 1-A.
 Alpha  occ. eigenvalues --  -10.19363 -10.19171 -10.19086 -10.19032 -10.18702
 Alpha  occ. eigenvalues --  -10.18653  -0.85278  -0.74679  -0.73725  -0.60300
 Alpha  occ. eigenvalues --   -0.59293  -0.51579  -0.45391  -0.43990  -0.42044
 Alpha  occ. eigenvalues --   -0.40903  -0.36568  -0.33965  -0.32257  -0.25366
 Alpha  occ. eigenvalues --   -0.24280
 Alpha virt. eigenvalues --   -0.00480   0.00231   0.07559   0.12876   0.14004
 Alpha virt. eigenvalues --    0.15588   0.17612   0.18180   0.19246   0.28193
 Alpha virt. eigenvalues --    0.30033   0.31645   0.34046   0.45326   0.48502

 Mulliken charges:
               1
     1  C   -0.106476
     2  C   -0.080165
     3  C   -0.090331
     4  C   -0.066326
     5  C   -0.079500
     6  C   -0.077668
     7  H    0.081747
     8  H    0.089388
     9  H    0.066157
    10  H    0.085644
    11  H    0.078936
    12  H    0.098594
 Sum of Mulliken charges =  -0.00000

 Dipole moment (field-independent basis, Debye):
    X=              0.0047    Y=             -0.0934    Z=              0.1841  Tot=              0.2064
 Quadrupole moment (field-independent basis, Debye-Ang):
   XX=            -31.7669   YY=            -31.8272   ZZ=            -38.4981
   XY=             -0.3307   XZ=             -0.3954   YZ=              0.0259

 Normal termination of Gaussian 16 at Fri Nov 10 16:37:02 2023.
