 Gaussian 16, Revision B.01,
 Gaussian 16:  EM64L-G16RevB.01 20-Dec-2017

 ---------------------------------
 # TD=(NStates=1) B3LYP/6-31G(d,p)
 ---------------------------------

 -------
 ABSSPCT
 -------
 Symbolic Z-matrix:
 Charge =  0 Multiplicity = 1

                         Standard orientation:
 ---------------------------------------------------------------------
 Center     Atomic      Atomic             Coordinates (Angstroms)
 Number     Number       Type             X           Y           Z
 ---------------------------------------------------------------------
      1          6           0       -1.339985    0.364307   -0.022174
      2          6           0       -0.362459    1.296910   -0.043548
      3          6           0        1.039565    0.941988    0.032171
      4          6           0        1.320225   -0.365554   -0.041818
      5          6           0        0.294153   -1.327855    0.014117
      6          6           0       -0.999464   -0.986214    0.015050
      7          1           0       -2.349840    0.886865    0.041355
      8          1           0       -1.830550   -1.553002    0.132594
      9          1           0        0.875681   -2.323281    0.036349
     10          1           0        2.289110   -0.560079   -0.230285
     11          1           0        1.897393    1.660709    0.375173
     12          1           0       -0.594010    2.347293   -0.077975
 ---------------------------------------------------------------------

 SCF Done:  E(RB3LYP) =  -232.202472242     A.U. after   13 cycles

 Excitation energies and oscillator strengths:

 Excited State   1:      Singlet-A      5.5499 eV  223.40 nm  f=0.0013  <S**2>=0.000
      20 -> 22         0.39970
      20 -> 23         0.28655
      21 -> 22        -0.34928
      21 -> 23         0.36816
 This state for optimization and/or second-order correction.
 Total Energy, E(TD-HF/TD-DFT) =  -231.998517261
 Copying the excited state density for this state as the 1-particle RhoCI density.

 The electronic state is 1-A.
 Alpha  occ. eigenvalues --  -10.19176 -10.18958 -10.18701 -10.18215 -10.18157
 Alpha  occ. eigenvalues --  -10.17078  -0.85760  -0.75460  -0.73931  -0.60936
 Alpha  occ. eigenvalues --   -0.59306  -0.52195  -0.45731  -0.44924  -0.42112
 Alpha  occ. eigenvalues --   -0.40344  -0.36905  -0.33723  -0.32369  -0.24927
 Alpha  occ. eigenvalues --   -0.24550
 Alpha virt. eigenvalues --   -0.00069   0.00757   0.08261   0.12631   0.13561
 Alpha virt. eigenvalues --    0.16761   0.17230   0.18901   0.19953   0.29051
 Alpha virt. eigenvalues --    0.30430   0.32452   0.34327   0.46248   0.51611

 Mulliken charges:
               1
     1  C   -0.082658
     2  C   -0.092726
     3  C   -0.090697
     4  C   -0.075504
     5  C   -0.073541
     6  C   -0.087402
     7  H    0.089252
     8  H    0.084992
     9  H    0.083985
    10  H    0.081697
    11  H    0.084538
    12  H    0.078063
 Sum of Mulliken charges =  -0.00000

 Dipole moment (field-independent basis, Debye):
    X=              0.0901    Y=              0.1294    Z=              0.1633  Tot=              0.2270
 Quadrupole moment (field-independent basis, Debye-Ang):
   XX=            -31.0062   YY=            -32.7605   ZZ=            -38.1214
   XY=             -0.4867   XZ=             -0.1289   YZ=              0.2444

 Normal termination of Gaussian 16 at Fri Nov 10 18:39:04 2023.
