 Gaussian 16, Revision B.01,
 Gaussian 16:  EM64L-G16RevB.01 20-Dec-2017

 ---------------------------------
 # TD=(NStates=1) B3LYP/6-31G(d,p)
 ---------------------------------

 -------
 ABSSPCT
 -------
 Symbolic Z-matrix:
 Charge =  0 Multiplicity = 1

                         Standard orientation:
 ---------------------------------------------------------------------
 Center     Atomic      Atomic             Coordinates (Angstroms)
 Number     Number       Type             X           Y           Z
 ---------------------------------------------------------------------
      1          6           0        0.129894   -1.389116   -0.013200
      2          6           0        1.270752   -0.600846    0.005853
      3          6           0        1.186782    0.799671    0.011461
      4          6           0       -0.150330    1.389240    0.027582
      5          6           0       -1.238913    0.586488    0.058466
      6          6           0       -1.194207   -0.785296   -0.063783
      7          1           0        0.249585   -2.380722    0.167611
      8          1           0       -2.088182   -1.473658    0.032252
      9          1           0       -2.166206    1.030730   -0.084035
     10          1           0       -0.295765    2.545878   -0.129942
     11          1           0        2.084164    1.375341   -0.070517
     12          1           0        2.192531   -1.098413   -0.073646
 ---------------------------------------------------------------------

 SCF Done:  E(RB3LYP) =  -232.228217433     A.U. after   13 cycles

 Excitation energies and oscillator strengths:

 Excited State   1:      Singlet-A      5.3509 eV  231.71 nm  f=0.0014  <S**2>=0.000
      20 -> 22         0.51073
      21 -> 22         0.11826
      21 -> 23        -0.47062
 This state for optimization and/or second-order correction.
 Total Energy, E(TD-HF/TD-DFT) =  -232.031575530
 Copying the excited state density for this state as the 1-particle RhoCI density.

 The electronic state is 1-A.
 Alpha  occ. eigenvalues --  -10.19930 -10.19609 -10.19465 -10.18373 -10.18274
 Alpha  occ. eigenvalues --  -10.17805  -0.84402  -0.75031  -0.72921  -0.60644
 Alpha  occ. eigenvalues --   -0.59028  -0.51767  -0.46143  -0.43605  -0.42242
 Alpha  occ. eigenvalues --   -0.41035  -0.35661  -0.34929  -0.32756  -0.25372
 Alpha  occ. eigenvalues --   -0.23711
 Alpha virt. eigenvalues --   -0.01370   0.00881   0.08927   0.13853   0.14491
 Alpha virt. eigenvalues --    0.15247   0.17447   0.18853   0.20000   0.28392
 Alpha virt. eigenvalues --    0.29610   0.30604   0.32781   0.47140   0.51554

 Mulliken charges:
               1
     1  C   -0.085842
     2  C   -0.072942
     3  C   -0.094751
     4  C   -0.091680
     5  C   -0.068215
     6  C   -0.095420
     7  H    0.081521
     8  H    0.089450
     9  H    0.081945
    10  H    0.083934
    11  H    0.088651
    12  H    0.083349
 Sum of Mulliken charges =  -0.00000

 Dipole moment (field-independent basis, Debye):
    X=              0.0730    Y=             -0.0925    Z=             -0.0868  Tot=              0.1464
 Quadrupole moment (field-independent basis, Debye-Ang):
   XX=            -31.4641   YY=            -31.6031   ZZ=            -38.5021
   XY=             -0.0009   XZ=             -0.1082   YZ=             -0.7587

 Normal termination of Gaussian 16 at Fri Nov 10 16:49:33 2023.
