 Gaussian 16, Revision B.01,
 Gaussian 16:  EM64L-G16RevB.01 20-Dec-2017

 ---------------------------------
 # TD=(NStates=1) B3LYP/6-31G(d,p)
 ---------------------------------

 -------
 ABSSPCT
 -------
 Symbolic Z-matrix:
 Charge =  0 Multiplicity = 1

                         Standard orientation:
 ---------------------------------------------------------------------
 Center     Atomic      Atomic             Coordinates (Angstroms)
 Number     Number       Type             X           Y           Z
 ---------------------------------------------------------------------
      1          6           0       -0.420765   -1.322623    0.014538
      2          6           0       -1.424680   -0.296701   -0.019869
      3          6           0       -0.926985    1.052853    0.030069
      4          6           0        0.478780    1.311361   -0.061020
      5          6           0        1.432224    0.250834    0.000266
      6          6           0        0.916360   -1.034791   -0.036247
      7          1           0       -0.784950   -2.355492    0.005603
      8          1           0        1.637943   -1.823174    0.000346
      9          1           0        2.363954    0.654258    0.275262
     10          1           0        0.634070    2.362429    0.050759
     11          1           0       -1.762218    1.854828   -0.041017
     12          1           0       -2.418411   -0.458455    0.142628
 ---------------------------------------------------------------------

 SCF Done:  E(RB3LYP) =  -232.224438676     A.U. after   13 cycles

 Excitation energies and oscillator strengths:

 Excited State   1:      Singlet-A      5.2659 eV  235.45 nm  f=0.0022  <S**2>=0.000
      20 -> 22         0.48202
      20 -> 23         0.17986
      21 -> 22         0.23569
      21 -> 23        -0.42356
 This state for optimization and/or second-order correction.
 Total Energy, E(TD-HF/TD-DFT) =  -232.030921606
 Copying the excited state density for this state as the 1-particle RhoCI density.

 The electronic state is 1-A.
 Alpha  occ. eigenvalues --  -10.19818 -10.19209 -10.19173 -10.19031 -10.18836
 Alpha  occ. eigenvalues --  -10.18771  -0.84087  -0.74027  -0.73591  -0.60686
 Alpha  occ. eigenvalues --   -0.59129  -0.51614  -0.47039  -0.43638  -0.41922
 Alpha  occ. eigenvalues --   -0.40575  -0.36189  -0.33962  -0.32424  -0.24660
 Alpha  occ. eigenvalues --   -0.24289
 Alpha virt. eigenvalues --   -0.01162   0.00172   0.09502   0.13265   0.14347
 Alpha virt. eigenvalues --    0.15495   0.17651   0.17940   0.19300   0.28831
 Alpha virt. eigenvalues --    0.29090   0.30111   0.31591   0.46524   0.50911

 Mulliken charges:
               1
     1  C   -0.082146
     2  C   -0.079366
     3  C   -0.098205
     4  C   -0.098845
     5  C   -0.078959
     6  C   -0.088420
     7  H    0.084458
     8  H    0.085345
     9  H    0.101248
    10  H    0.087589
    11  H    0.079442
    12  H    0.087858
 Sum of Mulliken charges =  -0.00000

 Dipole moment (field-independent basis, Debye):
    X=             -0.0562    Y=              0.0128    Z=              0.2911  Tot=              0.2968
 Quadrupole moment (field-independent basis, Debye-Ang):
   XX=            -31.2916   YY=            -31.8800   ZZ=            -38.5753
   XY=              0.2092   XZ=              0.3664   YZ=              0.1721

 Normal termination of Gaussian 16 at Fri Nov 10 17:30:58 2023.
