 Gaussian 16, Revision B.01,
 Gaussian 16:  EM64L-G16RevB.01 20-Dec-2017

 ---------------------------------
 # TD=(NStates=1) B3LYP/6-31G(d,p)
 ---------------------------------

 -------
 ABSSPCT
 -------
 Symbolic Z-matrix:
 Charge =  0 Multiplicity = 1

                         Standard orientation:
 ---------------------------------------------------------------------
 Center     Atomic      Atomic             Coordinates (Angstroms)
 Number     Number       Type             X           Y           Z
 ---------------------------------------------------------------------
      1          6           0       -0.830064   -1.142510    0.035482
      2          6           0       -1.393037    0.195659    0.064603
      3          6           0       -0.552167    1.246593   -0.008503
      4          6           0        0.809532    1.129189   -0.018319
      5          6           0        1.383565   -0.195318    0.031212
      6          6           0        0.559613   -1.275178   -0.123095
      7          1           0       -1.690306   -1.746457   -0.063064
      8          1           0        1.083793   -2.235829   -0.027446
      9          1           0        2.549486   -0.216980    0.400259
     10          1           0        1.568548    1.971735   -0.091114
     11          1           0       -0.977014    2.367993   -0.196315
     12          1           0       -2.399154    0.108930    0.089404
 ---------------------------------------------------------------------

 SCF Done:  E(RB3LYP) =  -232.195567339     A.U. after   13 cycles

 Excitation energies and oscillator strengths:

 Excited State   1:      Singlet-A      5.3704 eV  230.87 nm  f=0.0001  <S**2>=0.000
      20 -> 22        -0.49137
      21 -> 23         0.50349
 This state for optimization and/or second-order correction.
 Total Energy, E(TD-HF/TD-DFT) =  -231.998209682
 Copying the excited state density for this state as the 1-particle RhoCI density.

 The electronic state is 1-A.
 Alpha  occ. eigenvalues --  -10.20300 -10.19654 -10.19474 -10.19344 -10.19264
 Alpha  occ. eigenvalues --  -10.18175  -0.85089  -0.74721  -0.73844  -0.60329
 Alpha  occ. eigenvalues --   -0.59268  -0.51312  -0.45559  -0.44878  -0.41238
 Alpha  occ. eigenvalues --   -0.39279  -0.37417  -0.34789  -0.30699  -0.25722
 Alpha  occ. eigenvalues --   -0.23896
 Alpha virt. eigenvalues --   -0.01335   0.00446   0.07216   0.11309   0.13286
 Alpha virt. eigenvalues --    0.15149   0.16341   0.17307   0.20991   0.26818
 Alpha virt. eigenvalues --    0.29194   0.31298   0.35193   0.46086   0.51638

 Mulliken charges:
               1
     1  C   -0.080946
     2  C   -0.079588
     3  C   -0.066160
     4  C   -0.088511
     5  C   -0.087458
     6  C   -0.100208
     7  H    0.088977
     8  H    0.085740
     9  H    0.085914
    10  H    0.091419
    11  H    0.065559
    12  H    0.085262
 Sum of Mulliken charges =  -0.00000

 Dipole moment (field-independent basis, Debye):
    X=             -0.0898    Y=             -0.0260    Z=              0.0618  Tot=              0.1121
 Quadrupole moment (field-independent basis, Debye-Ang):
   XX=            -30.8605   YY=            -33.2029   ZZ=            -38.5319
   XY=              0.8575   XZ=              0.7163   YZ=             -0.3693

 Normal termination of Gaussian 16 at Fri Nov 10 17:27:26 2023.
