 Gaussian 16, Revision B.01,
 Gaussian 16:  EM64L-G16RevB.01 20-Dec-2017

 ---------------------------------
 # TD=(NStates=1) B3LYP/6-31G(d,p)
 ---------------------------------

 -------
 ABSSPCT
 -------
 Symbolic Z-matrix:
 Charge =  0 Multiplicity = 1

                         Standard orientation:
 ---------------------------------------------------------------------
 Center     Atomic      Atomic             Coordinates (Angstroms)
 Number     Number       Type             X           Y           Z
 ---------------------------------------------------------------------
      1          6           0        1.416280   -0.231096    0.004649
      2          6           0        0.480193   -1.233153   -0.080622
      3          6           0       -0.874221   -1.091204   -0.050558
      4          6           0       -1.441394    0.187977    0.027800
      5          6           0       -0.512183    1.239574    0.006395
      6          6           0        0.878707    1.076380   -0.041490
      7          1           0        2.627276   -0.317972    0.385810
      8          1           0        1.524669    1.906829   -0.063779
      9          1           0       -0.874086    2.327187    0.046854
     10          1           0       -2.394273    0.571927    0.112855
     11          1           0       -1.570246   -1.972088    0.202438
     12          1           0        1.002364   -2.206752    0.118778
 ---------------------------------------------------------------------

 SCF Done:  E(RB3LYP) =  -232.206586429     A.U. after   13 cycles

 Excitation energies and oscillator strengths:

 Excited State   1:      Singlet-A      5.4269 eV  228.46 nm  f=0.0026  <S**2>=0.000
      20 -> 22         0.48607
      20 -> 23         0.17171
      21 -> 22         0.22982
      21 -> 23        -0.42535
 This state for optimization and/or second-order correction.
 Total Energy, E(TD-HF/TD-DFT) =  -232.007152822
 Copying the excited state density for this state as the 1-particle RhoCI density.

 The electronic state is 1-A.
 Alpha  occ. eigenvalues --  -10.20502 -10.19946 -10.19145 -10.18904 -10.18799
 Alpha  occ. eigenvalues --  -10.18516  -0.85231  -0.74505  -0.73847  -0.60570
 Alpha  occ. eigenvalues --   -0.58576  -0.51552  -0.45307  -0.43998  -0.41894
 Alpha  occ. eigenvalues --   -0.39915  -0.36255  -0.34497  -0.31757  -0.24971
 Alpha  occ. eigenvalues --   -0.24644
 Alpha virt. eigenvalues --   -0.00871   0.00493   0.06283   0.11650   0.13483
 Alpha virt. eigenvalues --    0.14888   0.17094   0.18214   0.19387   0.28576
 Alpha virt. eigenvalues --    0.29944   0.31011   0.33617   0.46985   0.51711

 Mulliken charges:
               1
     1  C   -0.085942
     2  C   -0.087116
     3  C   -0.098047
     4  C   -0.063673
     5  C   -0.094003
     6  C   -0.076391
     7  H    0.084482
     8  H    0.082830
     9  H    0.073991
    10  H    0.092599
    11  H    0.089180
    12  H    0.082089
 Sum of Mulliken charges =  -0.00000

 Dipole moment (field-independent basis, Debye):
    X=             -0.0205    Y=              0.2163    Z=              0.4582  Tot=              0.5071
 Quadrupole moment (field-independent basis, Debye-Ang):
   XX=            -31.3462   YY=            -32.6365   ZZ=            -38.5029
   XY=             -0.0909   XZ=              0.2725   YZ=             -0.5623

 Normal termination of Gaussian 16 at Fri Nov 10 18:47:07 2023.
