 Gaussian 16, Revision B.01,
 Gaussian 16:  EM64L-G16RevB.01 20-Dec-2017

 ---------------------------------
 # TD=(NStates=1) B3LYP/6-31G(d,p)
 ---------------------------------

 -------
 ABSSPCT
 -------
 Symbolic Z-matrix:
 Charge =  0 Multiplicity = 1

                         Standard orientation:
 ---------------------------------------------------------------------
 Center     Atomic      Atomic             Coordinates (Angstroms)
 Number     Number       Type             X           Y           Z
 ---------------------------------------------------------------------
      1          6           0       -0.168771    1.366034    0.077181
      2          6           0        1.133965    0.785214   -0.083431
      3          6           0        1.293004   -0.583841   -0.009374
      4          6           0        0.131230   -1.300940    0.085820
      5          6           0       -1.170673   -0.810821   -0.053026
      6          6           0       -1.328954    0.582480   -0.001130
      7          1           0        0.040462    2.535253    0.115856
      8          1           0       -2.303374    1.108205   -0.099576
      9          1           0       -2.023556   -1.657466   -0.145520
     10          1           0        0.352896   -2.416959    0.172960
     11          1           0        2.285598   -1.101983   -0.132787
     12          1           0        2.309166    1.304197   -0.007175
 ---------------------------------------------------------------------

 SCF Done:  E(RB3LYP) =  -232.193676434     A.U. after   13 cycles

 Excitation energies and oscillator strengths:

 Excited State   1:      Singlet-A      5.4335 eV  228.18 nm  f=0.0026  <S**2>=0.000
      20 -> 22        -0.40158
      20 -> 23        -0.22228
      21 -> 22        -0.28307
      21 -> 23         0.45674
 This state for optimization and/or second-order correction.
 Total Energy, E(TD-HF/TD-DFT) =  -231.993998349
 Copying the excited state density for this state as the 1-particle RhoCI density.

 The electronic state is 1-A.
 Alpha  occ. eigenvalues --  -10.20779 -10.20733 -10.20591 -10.20543 -10.18990
 Alpha  occ. eigenvalues --  -10.18766  -0.85125  -0.74746  -0.72934  -0.59481
 Alpha  occ. eigenvalues --   -0.58693  -0.50418  -0.44775  -0.43999  -0.40934
 Alpha  occ. eigenvalues --   -0.39363  -0.36584  -0.33603  -0.31598  -0.25521
 Alpha  occ. eigenvalues --   -0.24362
 Alpha virt. eigenvalues --   -0.00498  -0.00117   0.05517   0.09885   0.12174
 Alpha virt. eigenvalues --    0.14527   0.15137   0.15816   0.18539   0.27856
 Alpha virt. eigenvalues --    0.29602   0.31890   0.32528   0.46083   0.50842

 Mulliken charges:
               1
     1  C   -0.097163
     2  C   -0.089114
     3  C   -0.063493
     4  C   -0.080840
     5  C   -0.081975
     6  C   -0.105841
     7  H    0.094696
     8  H    0.099684
     9  H    0.093432
    10  H    0.071549
    11  H    0.093758
    12  H    0.065308
 Sum of Mulliken charges =  -0.00000

 Dipole moment (field-independent basis, Debye):
    X=              0.0559    Y=             -0.2034    Z=             -0.0672  Tot=              0.2214
 Quadrupole moment (field-independent basis, Debye-Ang):
   XX=            -31.4732   YY=            -32.5844   ZZ=            -39.0158
   XY=             -0.2485   XZ=              0.2781   YZ=              0.1790

 Normal termination of Gaussian 16 at Fri Nov 10 18:33:14 2023.
