 Gaussian 16, Revision B.01,
 Gaussian 16:  EM64L-G16RevB.01 20-Dec-2017

 ---------------------------------
 # TD=(NStates=1) B3LYP/6-31G(d,p)
 ---------------------------------

 -------
 ABSSPCT
 -------
 Symbolic Z-matrix:
 Charge =  0 Multiplicity = 1

                         Standard orientation:
 ---------------------------------------------------------------------
 Center     Atomic      Atomic             Coordinates (Angstroms)
 Number     Number       Type             X           Y           Z
 ---------------------------------------------------------------------
      1          6           0       -0.477601    1.269880   -0.043289
      2          6           0       -1.448205    0.228362   -0.046461
      3          6           0       -0.910455   -1.051950    0.056057
      4          6           0        0.507410   -1.313640    0.013584
      5          6           0        1.412690   -0.222434   -0.019659
      6          6           0        0.903416    1.088345    0.034917
      7          1           0       -0.972663    2.272691    0.196968
      8          1           0        1.534186    1.950627    0.055633
      9          1           0        2.488162   -0.403553   -0.088142
     10          1           0        0.819956   -2.219132   -0.122191
     11          1           0       -1.411530   -1.946051    0.112220
     12          1           0       -2.381637    0.354039   -0.125383
 ---------------------------------------------------------------------

 SCF Done:  E(RB3LYP) =  -232.209256678     A.U. after   12 cycles

 Excitation energies and oscillator strengths:

 Excited State   1:      Singlet-A      5.2824 eV  234.71 nm  f=0.0014  <S**2>=0.000
      20 -> 22         0.40788
      20 -> 23        -0.22904
      21 -> 22         0.29216
      21 -> 23         0.44207
 This state for optimization and/or second-order correction.
 Total Energy, E(TD-HF/TD-DFT) =  -232.015132219
 Copying the excited state density for this state as the 1-particle RhoCI density.

 The electronic state is 1-A.
 Alpha  occ. eigenvalues --  -10.19399 -10.19225 -10.18836 -10.18413 -10.17932
 Alpha  occ. eigenvalues --  -10.17898  -0.84076  -0.74590  -0.73684  -0.60904
 Alpha  occ. eigenvalues --   -0.59846  -0.52814  -0.47440  -0.43590  -0.42907
 Alpha  occ. eigenvalues --   -0.41183  -0.35692  -0.34007  -0.33405  -0.24803
 Alpha  occ. eigenvalues --   -0.23877
 Alpha virt. eigenvalues --   -0.00566  -0.00025   0.10147   0.14496   0.15478
 Alpha virt. eigenvalues --    0.15855   0.17755   0.19026   0.20753   0.28219
 Alpha virt. eigenvalues --    0.29339   0.31397   0.32102   0.46549   0.50355

 Mulliken charges:
               1
     1  C   -0.109512
     2  C   -0.038626
     3  C   -0.086024
     4  C   -0.069649
     5  C   -0.092060
     6  C   -0.075068
     7  H    0.076487
     8  H    0.089048
     9  H    0.084445
    10  H    0.074089
    11  H    0.076281
    12  H    0.070590
 Sum of Mulliken charges =  -0.00000

 Dipole moment (field-independent basis, Debye):
    X=             -0.0422    Y=             -0.1788    Z=             -0.0057  Tot=              0.1838
 Quadrupole moment (field-independent basis, Debye-Ang):
   XX=            -31.1425   YY=            -31.6855   ZZ=            -38.3317
   XY=             -0.0506   XZ=             -0.2098   YZ=              0.5013

 Normal termination of Gaussian 16 at Fri Nov 10 16:22:09 2023.
