 Gaussian 16, Revision B.01,
 Gaussian 16:  EM64L-G16RevB.01 20-Dec-2017

 ---------------------------------
 # TD=(NStates=1) B3LYP/6-31G(d,p)
 ---------------------------------

 -------
 ABSSPCT
 -------
 Symbolic Z-matrix:
 Charge =  0 Multiplicity = 1

                         Standard orientation:
 ---------------------------------------------------------------------
 Center     Atomic      Atomic             Coordinates (Angstroms)
 Number     Number       Type             X           Y           Z
 ---------------------------------------------------------------------
      1          6           0       -1.121702   -0.793335    0.013145
      2          6           0        0.068032   -1.335364   -0.027389
      3          6           0        1.263696   -0.647914   -0.059196
      4          6           0        1.212045    0.759852    0.022783
      5          6           0       -0.107596    1.410529   -0.032395
      6          6           0       -1.263350    0.645789   -0.033070
      7          1           0       -2.116540   -1.287308    0.144129
      8          1           0       -2.286172    0.976889    0.139664
      9          1           0       -0.124022    2.438892    0.019954
     10          1           0        2.103245    1.260378    0.172874
     11          1           0        2.088707   -1.135448    0.178710
     12          1           0        0.028032   -2.490748    0.041395
 ---------------------------------------------------------------------

 SCF Done:  E(RB3LYP) =  -232.217232263     A.U. after   13 cycles

 Excitation energies and oscillator strengths:

 Excited State   1:      Singlet-A      5.4453 eV  227.69 nm  f=0.0016  <S**2>=0.000
      20 -> 22         0.48741
      20 -> 23         0.14144
      21 -> 22         0.19521
      21 -> 23        -0.45158
 This state for optimization and/or second-order correction.
 Total Energy, E(TD-HF/TD-DFT) =  -232.017121368
 Copying the excited state density for this state as the 1-particle RhoCI density.

 The electronic state is 1-A.
 Alpha  occ. eigenvalues --  -10.19237 -10.19089 -10.19030 -10.18341 -10.18231
 Alpha  occ. eigenvalues --  -10.17835  -0.84778  -0.74393  -0.74061  -0.60606
 Alpha  occ. eigenvalues --   -0.59862  -0.52109  -0.46301  -0.44566  -0.41606
 Alpha  occ. eigenvalues --   -0.41192  -0.36260  -0.35331  -0.31727  -0.25050
 Alpha  occ. eigenvalues --   -0.24336
 Alpha virt. eigenvalues --   -0.00727   0.00595   0.08891   0.14181   0.15003
 Alpha virt. eigenvalues --    0.15414   0.17851   0.19231   0.20144   0.27643
 Alpha virt. eigenvalues --    0.30284   0.30779   0.34120   0.46406   0.51669

 Mulliken charges:
               1
     1  C   -0.071272
     2  C   -0.081228
     3  C   -0.070510
     4  C   -0.098485
     5  C   -0.087096
     6  C   -0.087498
     7  H    0.083978
     8  H    0.088145
     9  H    0.082704
    10  H    0.087419
    11  H    0.083904
    12  H    0.069940
 Sum of Mulliken charges =  -0.00000

 Dipole moment (field-independent basis, Debye):
    X=             -0.0086    Y=              0.0891    Z=              0.4348  Tot=              0.4439
 Quadrupole moment (field-independent basis, Debye-Ang):
   XX=            -30.8963   YY=            -32.3704   ZZ=            -38.3031
   XY=              0.2158   XZ=              0.1492   YZ=             -0.0362

 Normal termination of Gaussian 16 at Fri Nov 10 19:09:19 2023.
