 Gaussian 16, Revision B.01,
 Gaussian 16:  EM64L-G16RevB.01 20-Dec-2017

 ---------------------------------
 # TD=(NStates=1) B3LYP/6-31G(d,p)
 ---------------------------------

 -------
 ABSSPCT
 -------
 Symbolic Z-matrix:
 Charge =  0 Multiplicity = 1

                         Standard orientation:
 ---------------------------------------------------------------------
 Center     Atomic      Atomic             Coordinates (Angstroms)
 Number     Number       Type             X           Y           Z
 ---------------------------------------------------------------------
      1          6           0        1.349104   -0.411864   -0.095845
      2          6           0        1.086856    0.909212    0.095415
      3          6           0       -0.269221    1.379519    0.009112
      4          6           0       -1.346984    0.476311   -0.098553
      5          6           0       -1.044158   -0.976378    0.056800
      6          6           0        0.290415   -1.370429    0.009029
      7          1           0        2.306926   -0.808487   -0.229678
      8          1           0        0.600895   -2.360320    0.049203
      9          1           0       -2.013191   -1.572570    0.266717
     10          1           0       -2.518449    0.612841   -0.128891
     11          1           0       -0.705809    2.460526   -0.023947
     12          1           0        1.933552    1.629780    0.210847
 ---------------------------------------------------------------------

 SCF Done:  E(RB3LYP) =  -232.213309711     A.U. after   13 cycles

 Excitation energies and oscillator strengths:

 Excited State   1:      Singlet-A      5.2551 eV  235.93 nm  f=0.0008  <S**2>=0.000
      20 -> 22         0.49951
      20 -> 23        -0.14568
      21 -> 22        -0.16728
      21 -> 23        -0.44817
 This state for optimization and/or second-order correction.
 Total Energy, E(TD-HF/TD-DFT) =  -232.020189438
 Copying the excited state density for this state as the 1-particle RhoCI density.

 The electronic state is 1-A.
 Alpha  occ. eigenvalues --  -10.20565 -10.20409 -10.20092 -10.19889 -10.18792
 Alpha  occ. eigenvalues --  -10.18720  -0.83862  -0.73580  -0.73281  -0.59727
 Alpha  occ. eigenvalues --   -0.58885  -0.50869  -0.45603  -0.43998  -0.41245
 Alpha  occ. eigenvalues --   -0.40616  -0.36125  -0.33980  -0.31782  -0.24398
 Alpha  occ. eigenvalues --   -0.24296
 Alpha virt. eigenvalues --   -0.00771  -0.00078   0.07579   0.11885   0.13953
 Alpha virt. eigenvalues --    0.14341   0.15410   0.17346   0.19365   0.26225
 Alpha virt. eigenvalues --    0.29228   0.30476   0.32958   0.46951   0.50114

 Mulliken charges:
               1
     1  C   -0.073697
     2  C   -0.089727
     3  C   -0.102042
     4  C   -0.091954
     5  C   -0.089954
     6  C   -0.085833
     7  H    0.088801
     8  H    0.084123
     9  H    0.087949
    10  H    0.090094
    11  H    0.091173
    12  H    0.091067
 Sum of Mulliken charges =  -0.00000

 Dipole moment (field-independent basis, Debye):
    X=              0.0594    Y=             -0.1138    Z=              0.0919  Tot=              0.1578
 Quadrupole moment (field-independent basis, Debye-Ang):
   XX=            -30.5969   YY=            -32.6146   ZZ=            -38.8671
   XY=             -0.3211   XZ=             -0.2693   YZ=             -0.0751

 Normal termination of Gaussian 16 at Fri Nov 10 16:40:22 2023.
