 Gaussian 16, Revision B.01,
 Gaussian 16:  EM64L-G16RevB.01 20-Dec-2017

 ---------------------------------
 # TD=(NStates=1) B3LYP/6-31G(d,p)
 ---------------------------------

 -------
 ABSSPCT
 -------
 Symbolic Z-matrix:
 Charge =  0 Multiplicity = 1

                         Standard orientation:
 ---------------------------------------------------------------------
 Center     Atomic      Atomic             Coordinates (Angstroms)
 Number     Number       Type             X           Y           Z
 ---------------------------------------------------------------------
      1          6           0       -0.175993   -1.388133   -0.023626
      2          6           0       -1.311622   -0.490779   -0.033436
      3          6           0       -1.074977    0.834242    0.048740
      4          6           0        0.205138    1.337340   -0.084591
      5          6           0        1.301854    0.522871    0.038294
      6          6           0        1.066167   -0.847951    0.082265
      7          1           0       -0.264250   -2.291920   -0.103957
      8          1           0        1.960955   -1.479563   -0.145773
      9          1           0        2.422780    1.017771    0.003458
     10          1           0        0.104167    2.424008   -0.141628
     11          1           0       -1.947268    1.402593    0.227462
     12          1           0       -2.339784   -0.878431   -0.005437
 ---------------------------------------------------------------------

 SCF Done:  E(RB3LYP) =  -232.195412001     A.U. after   13 cycles

 Excitation energies and oscillator strengths:

 Excited State   1:      Singlet-A      5.5253 eV  224.39 nm  f=0.0004  <S**2>=0.000
      20 -> 22         0.52056
      21 -> 23         0.47642
 This state for optimization and/or second-order correction.
 Total Energy, E(TD-HF/TD-DFT) =  -231.992359734
 Copying the excited state density for this state as the 1-particle RhoCI density.

 The electronic state is 1-A.
 Alpha  occ. eigenvalues --  -10.20087 -10.18583 -10.18547 -10.18519 -10.17560
 Alpha  occ. eigenvalues --  -10.17117  -0.85609  -0.75235  -0.74120  -0.61470
 Alpha  occ. eigenvalues --   -0.58984  -0.52286  -0.46579  -0.43896  -0.41982
 Alpha  occ. eigenvalues --   -0.41139  -0.36273  -0.33730  -0.33455  -0.24970
 Alpha  occ. eigenvalues --   -0.24539
 Alpha virt. eigenvalues --   -0.00210   0.00641   0.08026   0.12940   0.15030
 Alpha virt. eigenvalues --    0.15830   0.16802   0.19440   0.20718   0.29598
 Alpha virt. eigenvalues --    0.30361   0.32854   0.33346   0.46009   0.52030

 Mulliken charges:
               1
     1  C   -0.031903
     2  C   -0.090181
     3  C   -0.078105
     4  C   -0.072525
     5  C   -0.094607
     6  C   -0.097036
     7  H    0.051993
     8  H    0.082305
     9  H    0.081727
    10  H    0.083617
    11  H    0.084020
    12  H    0.080695
 Sum of Mulliken charges =  -0.00000

 Dipole moment (field-independent basis, Debye):
    X=             -0.2245    Y=             -0.0088    Z=             -0.1125  Tot=              0.2513
 Quadrupole moment (field-independent basis, Debye-Ang):
   XX=            -31.5932   YY=            -31.9477   ZZ=            -38.1874
   XY=             -0.2152   XZ=             -0.5741   YZ=              0.4003

 Normal termination of Gaussian 16 at Fri Nov 10 17:59:24 2023.
