 Gaussian 16, Revision B.01,
 Gaussian 16:  EM64L-G16RevB.01 20-Dec-2017

 ---------------------------------
 # TD=(NStates=1) B3LYP/6-31G(d,p)
 ---------------------------------

 -------
 ABSSPCT
 -------
 Symbolic Z-matrix:
 Charge =  0 Multiplicity = 1

                         Standard orientation:
 ---------------------------------------------------------------------
 Center     Atomic      Atomic             Coordinates (Angstroms)
 Number     Number       Type             X           Y           Z
 ---------------------------------------------------------------------
      1          6           0        0.364664    1.315590   -0.063633
      2          6           0       -1.072752    0.941482    0.020661
      3          6           0       -1.364006   -0.359869   -0.058316
      4          6           0       -0.333862   -1.353872   -0.059581
      5          6           0        0.996172   -0.919282    0.101640
      6          6           0        1.410687    0.340408   -0.013745
      7          1           0        0.686643    2.354450   -0.008159
      8          1           0        2.470173    0.754834   -0.026975
      9          1           0        1.650059   -1.779826    0.049392
     10          1           0       -0.598325   -2.369643    0.008536
     11          1           0       -2.404866   -0.743300    0.115575
     12          1           0       -1.809102    1.996739    0.299476
 ---------------------------------------------------------------------

 SCF Done:  E(RB3LYP) =  -232.199833219     A.U. after   14 cycles

 Excitation energies and oscillator strengths:

 Excited State   1:      Singlet-A      5.4013 eV  229.55 nm  f=0.0010  <S**2>=0.000
      20 -> 22        -0.48243
      21 -> 23         0.50836
 This state for optimization and/or second-order correction.
 Total Energy, E(TD-HF/TD-DFT) =  -232.001339877
 Copying the excited state density for this state as the 1-particle RhoCI density.

 The electronic state is 1-A.
 Alpha  occ. eigenvalues --  -10.21348 -10.19805 -10.19472 -10.19359 -10.18995
 Alpha  occ. eigenvalues --  -10.18418  -0.84779  -0.75172  -0.72721  -0.60309
 Alpha  occ. eigenvalues --   -0.58474  -0.50918  -0.45180  -0.44659  -0.41388
 Alpha  occ. eigenvalues --   -0.39395  -0.35964  -0.35446  -0.31269  -0.26156
 Alpha  occ. eigenvalues --   -0.23391
 Alpha virt. eigenvalues --   -0.01564   0.00955   0.05912   0.10946   0.13712
 Alpha virt. eigenvalues --    0.14792   0.16680   0.17956   0.19422   0.26311
 Alpha virt. eigenvalues --    0.29257   0.31550   0.34299   0.45534   0.50423

 Mulliken charges:
               1
     1  C   -0.111217
     2  C   -0.063409
     3  C   -0.098444
     4  C   -0.084668
     5  C   -0.085990
     6  C   -0.065651
     7  H    0.083666
     8  H    0.095446
     9  H    0.077610
    10  H    0.091509
    11  H    0.085740
    12  H    0.075410
 Sum of Mulliken charges =  -0.00000

 Dipole moment (field-independent basis, Debye):
    X=              0.1508    Y=             -0.0615    Z=              0.2466  Tot=              0.2955
 Quadrupole moment (field-independent basis, Debye-Ang):
   XX=            -32.2746   YY=            -31.3475   ZZ=            -38.7569
   XY=              0.7471   XZ=             -0.6035   YZ=              0.2910

 Normal termination of Gaussian 16 at Fri Nov 10 17:06:54 2023.
