 Gaussian 16, Revision B.01,
 Gaussian 16:  EM64L-G16RevB.01 20-Dec-2017

 ---------------------------------
 # TD=(NStates=1) B3LYP/6-31G(d,p)
 ---------------------------------

 -------
 ABSSPCT
 -------
 Symbolic Z-matrix:
 Charge =  0 Multiplicity = 1

                         Standard orientation:
 ---------------------------------------------------------------------
 Center     Atomic      Atomic             Coordinates (Angstroms)
 Number     Number       Type             X           Y           Z
 ---------------------------------------------------------------------
      1          6           0       -1.119038   -0.919118    0.008639
      2          6           0        0.229588   -1.324967   -0.094390
      3          6           0        1.357923   -0.488575    0.052310
      4          6           0        1.138776    0.866189    0.008123
      5          6           0       -0.212484    1.352164   -0.038543
      6          6           0       -1.356324    0.469921    0.023459
      7          1           0       -2.120652   -1.568302    0.098706
      8          1           0       -2.262621    1.077756    0.144332
      9          1           0       -0.547982    2.462729   -0.093478
     10          1           0        1.851178    1.631692   -0.051753
     11          1           0        2.304337   -0.838203    0.198807
     12          1           0        0.545100   -2.499357   -0.054209
 ---------------------------------------------------------------------

 SCF Done:  E(RB3LYP) =  -232.210985515     A.U. after   13 cycles

 Excitation energies and oscillator strengths:

 Excited State   1:      Singlet-A      5.3026 eV  233.82 nm  f=0.0016  <S**2>=0.000
      20 -> 22        -0.46836
      21 -> 23         0.52412
 This state for optimization and/or second-order correction.
 Total Energy, E(TD-HF/TD-DFT) =  -232.016117611
 Copying the excited state density for this state as the 1-particle RhoCI density.

 The electronic state is 1-A.
 Alpha  occ. eigenvalues --  -10.20987 -10.20757 -10.19792 -10.19483 -10.18897
 Alpha  occ. eigenvalues --  -10.18797  -0.84172  -0.74687  -0.72547  -0.60142
 Alpha  occ. eigenvalues --   -0.58809  -0.50888  -0.45754  -0.44162  -0.42540
 Alpha  occ. eigenvalues --   -0.38872  -0.35928  -0.34003  -0.32298  -0.25209
 Alpha  occ. eigenvalues --   -0.23895
 Alpha virt. eigenvalues --   -0.00692  -0.00189   0.07145   0.12131   0.13234
 Alpha virt. eigenvalues --    0.14210   0.15855   0.18398   0.18807   0.27426
 Alpha virt. eigenvalues --    0.29590   0.29921   0.32043   0.47105   0.51122

 Mulliken charges:
               1
     1  C   -0.089063
     2  C   -0.104939
     3  C   -0.062847
     4  C   -0.079068
     5  C   -0.098651
     6  C   -0.079543
     7  H    0.093626
     8  H    0.092686
     9  H    0.077945
    10  H    0.088196
    11  H    0.092193
    12  H    0.069467
 Sum of Mulliken charges =  -0.00000

 Dipole moment (field-independent basis, Debye):
    X=              0.0605    Y=              0.2191    Z=              0.1757  Tot=              0.2873
 Quadrupole moment (field-independent basis, Debye-Ang):
   XX=            -30.9682   YY=            -32.4298   ZZ=            -38.9003
   XY=             -0.4967   XZ=             -0.0866   YZ=             -0.2978

 Normal termination of Gaussian 16 at Fri Nov 10 18:24:38 2023.
