 Gaussian 16, Revision B.01,
 Gaussian 16:  EM64L-G16RevB.01 20-Dec-2017

 ---------------------------------
 # TD=(NStates=1) B3LYP/6-31G(d,p)
 ---------------------------------

 -------
 ABSSPCT
 -------
 Symbolic Z-matrix:
 Charge =  0 Multiplicity = 1

                         Standard orientation:
 ---------------------------------------------------------------------
 Center     Atomic      Atomic             Coordinates (Angstroms)
 Number     Number       Type             X           Y           Z
 ---------------------------------------------------------------------
      1          6           0        0.914997   -1.132279   -0.010518
      2          6           0        1.369908    0.210383    0.071307
      3          6           0        0.539997    1.303563   -0.021635
      4          6           0       -0.902002    1.112761    0.009412
      5          6           0       -1.393271   -0.183164   -0.039764
      6          6           0       -0.508318   -1.299212   -0.004677
      7          1           0        1.580553   -1.878307   -0.012370
      8          1           0       -1.166782   -2.173184    0.097097
      9          1           0       -2.522212   -0.454041   -0.012817
     10          1           0       -1.562835    1.879029    0.124790
     11          1           0        1.047337    2.318452   -0.065096
     12          1           0        2.496075    0.235735   -0.156360
 ---------------------------------------------------------------------

 SCF Done:  E(RB3LYP) =  -232.218845041     A.U. after   12 cycles

 Excitation energies and oscillator strengths:

 Excited State   1:      Singlet-A      5.2928 eV  234.25 nm  f=0.0010  <S**2>=0.000
      20 -> 22         0.48226
      20 -> 23         0.11343
      21 -> 22         0.16669
      21 -> 23        -0.47577
 This state for optimization and/or second-order correction.
 Total Energy, E(TD-HF/TD-DFT) =  -232.024339532
 Copying the excited state density for this state as the 1-particle RhoCI density.

 The electronic state is 1-A.
 Alpha  occ. eigenvalues --  -10.19994 -10.19597 -10.19489 -10.19367 -10.19052
 Alpha  occ. eigenvalues --  -10.19016  -0.83996  -0.74321  -0.73274  -0.61553
 Alpha  occ. eigenvalues --   -0.57826  -0.51501  -0.46780  -0.43842  -0.41257
 Alpha  occ. eigenvalues --   -0.40650  -0.35648  -0.34276  -0.32710  -0.25083
 Alpha  occ. eigenvalues --   -0.23999
 Alpha virt. eigenvalues --   -0.01166   0.00199   0.08352   0.12229   0.14456
 Alpha virt. eigenvalues --    0.15198   0.16751   0.18904   0.19112   0.27782
 Alpha virt. eigenvalues --    0.29069   0.31127   0.31415   0.46801   0.50320

 Mulliken charges:
               1
     1  C   -0.076907
     2  C   -0.089510
     3  C   -0.095113
     4  C   -0.076808
     5  C   -0.094849
     6  C   -0.076950
     7  H    0.087185
     8  H    0.083154
     9  H    0.084582
    10  H    0.085875
    11  H    0.090124
    12  H    0.079216
 Sum of Mulliken charges =  -0.00000

 Dipole moment (field-independent basis, Debye):
    X=             -0.0993    Y=             -0.0306    Z=             -0.0050  Tot=              0.1041
 Quadrupole moment (field-independent basis, Debye-Ang):
   XX=            -31.1022   YY=            -32.1556   ZZ=            -38.7296
   XY=             -0.1315   XZ=             -0.6559   YZ=             -0.0758

 Normal termination of Gaussian 16 at Fri Nov 10 19:14:24 2023.
