 Gaussian 16, Revision B.01,
 Gaussian 16:  EM64L-G16RevB.01 20-Dec-2017

 ---------------------------------
 # TD=(NStates=1) B3LYP/6-31G(d,p)
 ---------------------------------

 -------
 ABSSPCT
 -------
 Symbolic Z-matrix:
 Charge =  0 Multiplicity = 1

                         Standard orientation:
 ---------------------------------------------------------------------
 Center     Atomic      Atomic             Coordinates (Angstroms)
 Number     Number       Type             X           Y           Z
 ---------------------------------------------------------------------
      1          6           0       -1.083384   -0.852824   -0.048473
      2          6           0       -1.343099    0.437459    0.068697
      3          6           0       -0.225120    1.401099   -0.021486
      4          6           0        1.058495    0.821127   -0.064422
      5          6           0        1.424850   -0.460060    0.017965
      6          6           0        0.220470   -1.328620    0.037232
      7          1           0       -1.892265   -1.622246   -0.074369
      8          1           0        0.186498   -2.220727   -0.037796
      9          1           0        2.371760   -1.007849   -0.051119
     10          1           0        1.797051    1.577633    0.318290
     11          1           0       -0.275317    2.319737   -0.179232
     12          1           0       -2.501000    0.844368    0.087151
 ---------------------------------------------------------------------

 SCF Done:  E(RB3LYP) =  -232.139488948     A.U. after   13 cycles

 Excitation energies and oscillator strengths:

 Excited State   1:      Singlet-A      5.1838 eV  239.18 nm  f=0.0053  <S**2>=0.000
      20 -> 22         0.52062
      21 -> 22         0.21662
      21 -> 23         0.41591
 This state for optimization and/or second-order correction.
 Total Energy, E(TD-HF/TD-DFT) =  -231.948988480
 Copying the excited state density for this state as the 1-particle RhoCI density.

 The electronic state is 1-A.
 Alpha  occ. eigenvalues --  -10.20320 -10.19665 -10.18576 -10.18340 -10.18262
 Alpha  occ. eigenvalues --  -10.17305  -0.85030  -0.75655  -0.73811  -0.63307
 Alpha  occ. eigenvalues --   -0.57868  -0.52015  -0.47449  -0.44229  -0.41635
 Alpha  occ. eigenvalues --   -0.40839  -0.36988  -0.34872  -0.31336  -0.25547
 Alpha  occ. eigenvalues --   -0.23268
 Alpha virt. eigenvalues --   -0.02109   0.01002   0.08756   0.12097   0.14782
 Alpha virt. eigenvalues --    0.15542   0.16432   0.19530   0.21046   0.27158
 Alpha virt. eigenvalues --    0.28005   0.31823   0.34528   0.45847   0.47760

 Mulliken charges:
               1
     1  C   -0.079931
     2  C   -0.086600
     3  C   -0.051781
     4  C   -0.114311
     5  C   -0.072036
     6  C   -0.041975
     7  H    0.084643
     8  H    0.043688
     9  H    0.103962
    10  H    0.072831
    11  H    0.073812
    12  H    0.067698
 Sum of Mulliken charges =  -0.00000

 Dipole moment (field-independent basis, Debye):
    X=             -0.0366    Y=             -0.2734    Z=              0.0012  Tot=              0.2758
 Quadrupole moment (field-independent basis, Debye-Ang):
   XX=            -32.1289   YY=            -31.4611   ZZ=            -38.2049
   XY=             -0.3159   XZ=              0.3112   YZ=              0.2604

 Normal termination of Gaussian 16 at Fri Nov 10 17:29:15 2023.
