 Gaussian 16, Revision B.01,
 Gaussian 16:  EM64L-G16RevB.01 20-Dec-2017

 ---------------------------------
 # TD=(NStates=1) B3LYP/6-31G(d,p)
 ---------------------------------

 -------
 ABSSPCT
 -------
 Symbolic Z-matrix:
 Charge =  0 Multiplicity = 1

                         Standard orientation:
 ---------------------------------------------------------------------
 Center     Atomic      Atomic             Coordinates (Angstroms)
 Number     Number       Type             X           Y           Z
 ---------------------------------------------------------------------
      1          6           0       -0.111200   -1.328775    0.044863
      2          6           0       -1.265784   -0.578636   -0.010109
      3          6           0       -1.212846    0.784815   -0.053662
      4          6           0        0.165606    1.393388    0.013727
      5          6           0        1.264211    0.575635   -0.011768
      6          6           0        1.158333   -0.833371    0.014496
      7          1           0       -0.393400   -2.420299   -0.129771
      8          1           0        2.030366   -1.543960   -0.008704
      9          1           0        2.314756    1.025428   -0.065085
     10          1           0        0.419334    2.322721    0.040826
     11          1           0       -1.994417    1.555342    0.154922
     12          1           0       -2.366559   -1.017572    0.022537
 ---------------------------------------------------------------------

 SCF Done:  E(RB3LYP) =  -232.208320339     A.U. after   13 cycles

 Excitation energies and oscillator strengths:

 Excited State   1:      Singlet-A      5.4600 eV  227.08 nm  f=0.0037  <S**2>=0.000
      20 -> 22         0.48997
      20 -> 23         0.14349
      21 -> 22        -0.23976
      21 -> 23         0.42579
 This state for optimization and/or second-order correction.
 Total Energy, E(TD-HF/TD-DFT) =  -232.007669159
 Copying the excited state density for this state as the 1-particle RhoCI density.

 The electronic state is 1-A.
 Alpha  occ. eigenvalues --  -10.19993 -10.19564 -10.19466 -10.19189 -10.18945
 Alpha  occ. eigenvalues --  -10.18078  -0.84900  -0.74692  -0.73704  -0.60926
 Alpha  occ. eigenvalues --   -0.58442  -0.51354  -0.46472  -0.43040  -0.41486
 Alpha  occ. eigenvalues --   -0.40919  -0.36367  -0.33706  -0.32482  -0.25370
 Alpha  occ. eigenvalues --   -0.24332
 Alpha virt. eigenvalues --   -0.01083   0.00868   0.07744   0.12451   0.13943
 Alpha virt. eigenvalues --    0.15723   0.16719   0.17042   0.19289   0.27430
 Alpha virt. eigenvalues --    0.29774   0.32223   0.32697   0.45630   0.50588

 Mulliken charges:
               1
     1  C   -0.077186
     2  C   -0.087082
     3  C   -0.094233
     4  C   -0.066555
     5  C   -0.095825
     6  C   -0.082269
     7  H    0.079807
     8  H    0.094152
     9  H    0.078424
    10  H    0.071399
    11  H    0.095230
    12  H    0.084140
 Sum of Mulliken charges =  -0.00000

 Dipole moment (field-independent basis, Debye):
    X=              0.0708    Y=              0.1120    Z=              0.0246  Tot=              0.1347
 Quadrupole moment (field-independent basis, Debye-Ang):
   XX=            -31.6136   YY=            -31.9054   ZZ=            -38.6157
   XY=             -0.0618   XZ=             -0.3678   YZ=              0.5180

 Normal termination of Gaussian 16 at Fri Nov 10 16:11:00 2023.
