 Gaussian 16, Revision B.01,
 Gaussian 16:  EM64L-G16RevB.01 20-Dec-2017

 ---------------------------------
 # TD=(NStates=1) B3LYP/6-31G(d,p)
 ---------------------------------

 -------
 ABSSPCT
 -------
 Symbolic Z-matrix:
 Charge =  0 Multiplicity = 1

                         Standard orientation:
 ---------------------------------------------------------------------
 Center     Atomic      Atomic             Coordinates (Angstroms)
 Number     Number       Type             X           Y           Z
 ---------------------------------------------------------------------
      1          6           0       -1.404680   -0.177897   -0.008615
      2          6           0       -0.856894    1.053158   -0.065807
      3          6           0        0.533077    1.250747    0.021499
      4          6           0        1.372546    0.183397   -0.046882
      5          6           0        0.879839   -1.070940    0.042129
      6          6           0       -0.518106   -1.275083   -0.002269
      7          1           0       -2.497198   -0.314747    0.189321
      8          1           0       -0.845009   -2.203239    0.020078
      9          1           0        1.417977   -1.959872   -0.085107
     10          1           0        2.450694    0.389575    0.032191
     11          1           0        1.030120    2.336967    0.202854
     12          1           0       -1.591285    1.971022    0.000332
 ---------------------------------------------------------------------

 SCF Done:  E(RB3LYP) =  -232.220391318     A.U. after   12 cycles

 Excitation energies and oscillator strengths:

 Excited State   1:      Singlet-A      5.5747 eV  222.41 nm  f=0.0008  <S**2>=0.000
      20 -> 22         0.47634
      21 -> 23         0.52014
 This state for optimization and/or second-order correction.
 Total Energy, E(TD-HF/TD-DFT) =  -232.015526528
 Copying the excited state density for this state as the 1-particle RhoCI density.

 The electronic state is 1-A.
 Alpha  occ. eigenvalues --  -10.19680 -10.19359 -10.18885 -10.18261 -10.18025
 Alpha  occ. eigenvalues --  -10.17797  -0.85656  -0.75149  -0.73845  -0.60325
 Alpha  occ. eigenvalues --   -0.59396  -0.51941  -0.45200  -0.44383  -0.42239
 Alpha  occ. eigenvalues --   -0.40599  -0.36671  -0.34283  -0.32740  -0.25682
 Alpha  occ. eigenvalues --   -0.24164
 Alpha virt. eigenvalues --   -0.00291   0.00744   0.07428   0.12922   0.14487
 Alpha virt. eigenvalues --    0.15634   0.17783   0.18086   0.20395   0.29376
 Alpha virt. eigenvalues --    0.31169   0.31682   0.34059   0.46125   0.52264

 Mulliken charges:
               1
     1  C   -0.071183
     2  C   -0.092839
     3  C   -0.080258
     4  C   -0.079314
     5  C   -0.074681
     6  C   -0.084745
     7  H    0.090292
     8  H    0.072663
     9  H    0.083240
    10  H    0.082398
    11  H    0.079289
    12  H    0.075137
 Sum of Mulliken charges =  -0.00000

 Dipole moment (field-independent basis, Debye):
    X=             -0.0275    Y=             -0.1757    Z=              0.1979  Tot=              0.2661
 Quadrupole moment (field-independent basis, Debye-Ang):
   XX=            -31.7103   YY=            -31.9210   ZZ=            -38.3334
   XY=              0.2135   XZ=             -0.2831   YZ=              0.4405

 Normal termination of Gaussian 16 at Fri Nov 10 17:07:02 2023.
