 Gaussian 16, Revision B.01,
 Gaussian 16:  EM64L-G16RevB.01 20-Dec-2017

 ---------------------------------
 # TD=(NStates=1) B3LYP/6-31G(d,p)
 ---------------------------------

 -------
 ABSSPCT
 -------
 Symbolic Z-matrix:
 Charge =  0 Multiplicity = 1

                         Standard orientation:
 ---------------------------------------------------------------------
 Center     Atomic      Atomic             Coordinates (Angstroms)
 Number     Number       Type             X           Y           Z
 ---------------------------------------------------------------------
      1          6           0       -1.344550    0.318423   -0.042989
      2          6           0       -0.389459    1.281374    0.020561
      3          6           0        0.992624    0.987532   -0.016477
      4          6           0        1.347469   -0.372777   -0.020194
      5          6           0        0.373816   -1.279648    0.045180
      6          6           0       -1.019178   -0.969560   -0.008255
      7          1           0       -2.398660    0.754616    0.052412
      8          1           0       -1.522797   -1.754104   -0.223231
      9          1           0        0.603797   -2.468662    0.336637
     10          1           0        2.444647   -0.690188   -0.252845
     11          1           0        1.680785    1.975831    0.060976
     12          1           0       -0.572107    2.390445    0.159096
 ---------------------------------------------------------------------

 SCF Done:  E(RB3LYP) =  -232.186204188     A.U. after   14 cycles

 Excitation energies and oscillator strengths:

 Excited State   1:      Singlet-A      5.5050 eV  225.22 nm  f=0.0017  <S**2>=0.000
      20 -> 22         0.48295
      20 -> 23         0.11612
      21 -> 22        -0.17078
      21 -> 23         0.47245
 This state for optimization and/or second-order correction.
 Total Energy, E(TD-HF/TD-DFT) =  -231.983900202
 Copying the excited state density for this state as the 1-particle RhoCI density.

 The electronic state is 1-A.
 Alpha  occ. eigenvalues --  -10.20243 -10.19829 -10.19513 -10.18792 -10.18688
 Alpha  occ. eigenvalues --  -10.17539  -0.86082  -0.75270  -0.73934  -0.60988
 Alpha  occ. eigenvalues --   -0.58383  -0.51698  -0.45721  -0.43968  -0.41941
 Alpha  occ. eigenvalues --   -0.39357  -0.37262  -0.34305  -0.31733  -0.25707
 Alpha  occ. eigenvalues --   -0.24217
 Alpha virt. eigenvalues --   -0.00806   0.00716   0.06352   0.11397   0.12849
 Alpha virt. eigenvalues --    0.15330   0.16558   0.18349   0.19320   0.27735
 Alpha virt. eigenvalues --    0.30787   0.31506   0.35840   0.46103   0.50675

 Mulliken charges:
               1
     1  C   -0.077458
     2  C   -0.079652
     3  C   -0.092539
     4  C   -0.084113
     5  C   -0.102077
     6  C   -0.048860
     7  H    0.080956
     8  H    0.081597
     9  H    0.068153
    10  H    0.087618
    11  H    0.085713
    12  H    0.080661
 Sum of Mulliken charges =  -0.00000

 Dipole moment (field-independent basis, Debye):
    X=             -0.0381    Y=              0.0732    Z=              0.0222  Tot=              0.0854
 Quadrupole moment (field-independent basis, Debye-Ang):
   XX=            -32.7408   YY=            -31.5956   ZZ=            -38.3510
   XY=              0.3428   XZ=             -0.1532   YZ=              0.3598

 Normal termination of Gaussian 16 at Fri Nov 10 16:28:35 2023.
