 Gaussian 16, Revision B.01,
 Gaussian 16:  EM64L-G16RevB.01 20-Dec-2017

 ---------------------------------
 # TD=(NStates=1) B3LYP/6-31G(d,p)
 ---------------------------------

 -------
 ABSSPCT
 -------
 Symbolic Z-matrix:
 Charge =  0 Multiplicity = 1

                         Standard orientation:
 ---------------------------------------------------------------------
 Center     Atomic      Atomic             Coordinates (Angstroms)
 Number     Number       Type             X           Y           Z
 ---------------------------------------------------------------------
      1          6           0       -1.223716   -0.655198   -0.106575
      2          6           0       -1.263096    0.682448   -0.017948
      3          6           0       -0.004051    1.333341    0.029570
      4          6           0        1.306253    0.639296   -0.020393
      5          6           0        1.218882   -0.703474   -0.013711
      6          6           0       -0.022738   -1.286056    0.049466
      7          1           0       -2.123506   -1.399601    0.046545
      8          1           0        0.013595   -2.429861    0.319516
      9          1           0        2.235100   -1.263695   -0.178021
     10          1           0        2.032964    1.372397    0.086744
     11          1           0        0.133480    2.439670    0.057640
     12          1           0       -2.360838    1.218943    0.145124
 ---------------------------------------------------------------------

 SCF Done:  E(RB3LYP) =  -232.192013930     A.U. after   13 cycles

 Excitation energies and oscillator strengths:

 Excited State   1:      Singlet-A      5.3967 eV  229.74 nm  f=0.0079  <S**2>=0.000
      20 -> 22        -0.41243
      21 -> 22         0.18731
      21 -> 23         0.53425
 This state for optimization and/or second-order correction.
 Total Energy, E(TD-HF/TD-DFT) =  -231.993690638
 Copying the excited state density for this state as the 1-particle RhoCI density.

 The electronic state is 1-A.
 Alpha  occ. eigenvalues --  -10.20512 -10.19683 -10.19425 -10.19274 -10.19133
 Alpha  occ. eigenvalues --  -10.18900  -0.85753  -0.75661  -0.72818  -0.59679
 Alpha  occ. eigenvalues --   -0.59371  -0.50839  -0.46207  -0.43215  -0.42185
 Alpha  occ. eigenvalues --   -0.38842  -0.36598  -0.34035  -0.32139  -0.26106
 Alpha  occ. eigenvalues --   -0.23502
 Alpha virt. eigenvalues --   -0.00679   0.00340   0.06094   0.11089   0.13131
 Alpha virt. eigenvalues --    0.14435   0.15844   0.17768   0.19355   0.26358
 Alpha virt. eigenvalues --    0.31118   0.31923   0.34226   0.45174   0.51351

 Mulliken charges:
               1
     1  C   -0.071542
     2  C   -0.080529
     3  C   -0.124348
     4  C   -0.052607
     5  C   -0.092953
     6  C   -0.081031
     7  H    0.084769
     8  H    0.076618
     9  H    0.084090
    10  H    0.094665
    11  H    0.077842
    12  H    0.085027
 Sum of Mulliken charges =  -0.00000

 Dipole moment (field-independent basis, Debye):
    X=              0.1262    Y=              0.0805    Z=              0.2563  Tot=              0.2968
 Quadrupole moment (field-independent basis, Debye-Ang):
   XX=            -31.6962   YY=            -32.4999   ZZ=            -38.6161
   XY=              0.7084   XZ=             -0.4977   YZ=             -0.1138

 Normal termination of Gaussian 16 at Fri Nov 10 17:26:31 2023.
