 Gaussian 16, Revision B.01,
 Gaussian 16:  EM64L-G16RevB.01 20-Dec-2017

 ---------------------------------
 # TD=(NStates=1) B3LYP/6-31G(d,p)
 ---------------------------------

 -------
 ABSSPCT
 -------
 Symbolic Z-matrix:
 Charge =  0 Multiplicity = 1

                         Standard orientation:
 ---------------------------------------------------------------------
 Center     Atomic      Atomic             Coordinates (Angstroms)
 Number     Number       Type             X           Y           Z
 ---------------------------------------------------------------------
      1          6           0        0.491302   -1.271579   -0.082678
      2          6           0        1.388001   -0.228792   -0.017995
      3          6           0        0.898422    1.016372    0.065494
      4          6           0       -0.462418    1.294974    0.007326
      5          6           0       -1.449030    0.235480    0.011310
      6          6           0       -0.915092   -1.014171    0.039239
      7          1           0        0.835633   -2.342392    0.210631
      8          1           0       -1.465196   -1.928247    0.037378
      9          1           0       -2.433603    0.302546   -0.182698
     10          1           0       -0.793957    2.373329   -0.079831
     11          1           0        1.682512    1.856807   -0.058062
     12          1           0        2.467511   -0.455740   -0.063592
 ---------------------------------------------------------------------

 SCF Done:  E(RB3LYP) =  -232.222094960     A.U. after   13 cycles

 Excitation energies and oscillator strengths:

 Excited State   1:      Singlet-A      5.4451 eV  227.70 nm  f=0.0027  <S**2>=0.000
      20 -> 22         0.47518
      20 -> 23        -0.13025
      21 -> 22         0.21558
      21 -> 23         0.45858
 This state for optimization and/or second-order correction.
 Total Energy, E(TD-HF/TD-DFT) =  -232.021991689
 Copying the excited state density for this state as the 1-particle RhoCI density.

 The electronic state is 1-A.
 Alpha  occ. eigenvalues --  -10.20095 -10.19034 -10.18949 -10.18627 -10.18434
 Alpha  occ. eigenvalues --  -10.18409  -0.85269  -0.75512  -0.72995  -0.60603
 Alpha  occ. eigenvalues --   -0.59022  -0.51643  -0.45786  -0.44150  -0.42404
 Alpha  occ. eigenvalues --   -0.40047  -0.36522  -0.33822  -0.32854  -0.25661
 Alpha  occ. eigenvalues --   -0.24081
 Alpha virt. eigenvalues --   -0.01094   0.00707   0.08201   0.12892   0.14358
 Alpha virt. eigenvalues --    0.15613   0.17376   0.18374   0.19413   0.27973
 Alpha virt. eigenvalues --    0.30918   0.31804   0.32475   0.46613   0.51586

 Mulliken charges:
               1
     1  C   -0.097195
     2  C   -0.074188
     3  C   -0.066173
     4  C   -0.114368
     5  C   -0.058765
     6  C   -0.090607
     7  H    0.077813
     8  H    0.081956
     9  H    0.088659
    10  H    0.086334
    11  H    0.077700
    12  H    0.088834
 Sum of Mulliken charges =  -0.00000

 Dipole moment (field-independent basis, Debye):
    X=             -0.0602    Y=             -0.0085    Z=             -0.0924  Tot=              0.1106
 Quadrupole moment (field-independent basis, Debye-Ang):
   XX=            -31.3694   YY=            -32.3611   ZZ=            -38.4198
   XY=              0.0620   XZ=              0.3529   YZ=             -0.7559

 Normal termination of Gaussian 16 at Fri Nov 10 17:39:18 2023.
