 Gaussian 16, Revision B.01,
 Gaussian 16:  EM64L-G16RevB.01 20-Dec-2017

 ---------------------------------
 # TD=(NStates=1) B3LYP/6-31G(d,p)
 ---------------------------------

 -------
 ABSSPCT
 -------
 Symbolic Z-matrix:
 Charge =  0 Multiplicity = 1

                         Standard orientation:
 ---------------------------------------------------------------------
 Center     Atomic      Atomic             Coordinates (Angstroms)
 Number     Number       Type             X           Y           Z
 ---------------------------------------------------------------------
      1          6           0       -0.776093   -1.134336   -0.028674
      2          6           0       -1.367443    0.036956    0.057426
      3          6           0       -0.635645    1.228680   -0.092019
      4          6           0        0.706965    1.177582   -0.006312
      5          6           0        1.402171   -0.081353    0.033484
      6          6           0        0.619240   -1.244311   -0.009240
      7          1           0       -1.281861   -1.964293   -0.158143
      8          1           0        1.072114   -2.212113    0.049224
      9          1           0        2.640915   -0.087929    0.025756
     10          1           0        1.519263    2.027898    0.063415
     11          1           0       -1.207075    2.211863    0.046871
     12          1           0       -2.438525    0.125268    0.244896
 ---------------------------------------------------------------------

 SCF Done:  E(RB3LYP) =  -232.209085888     A.U. after   13 cycles

 Excitation energies and oscillator strengths:

 Excited State   1:      Singlet-A      5.5380 eV  223.88 nm  f=0.0010  <S**2>=0.000
      20 -> 22         0.44960
      20 -> 23         0.19818
      21 -> 22         0.26120
      21 -> 23        -0.43555
 This state for optimization and/or second-order correction.
 Total Energy, E(TD-HF/TD-DFT) =  -232.005569895
 Copying the excited state density for this state as the 1-particle RhoCI density.

 The electronic state is 1-A.
 Alpha  occ. eigenvalues --  -10.20355 -10.19697 -10.19159 -10.18728 -10.18231
 Alpha  occ. eigenvalues --  -10.16974  -0.85624  -0.74898  -0.73777  -0.59972
 Alpha  occ. eigenvalues --   -0.59435  -0.51850  -0.44988  -0.44497  -0.41632
 Alpha  occ. eigenvalues --   -0.40971  -0.36587  -0.33975  -0.32618  -0.25161
 Alpha  occ. eigenvalues --   -0.24486
 Alpha virt. eigenvalues --   -0.00219   0.00626   0.06958   0.12351   0.13920
 Alpha virt. eigenvalues --    0.15682   0.16789   0.18119   0.20117   0.28374
 Alpha virt. eigenvalues --    0.30362   0.32470   0.34452   0.46172   0.51957

 Mulliken charges:
               1
     1  C   -0.045809
     2  C   -0.086362
     3  C   -0.095891
     4  C   -0.077002
     5  C   -0.091310
     6  C   -0.092045
     7  H    0.074481
     8  H    0.084478
     9  H    0.078272
    10  H    0.082563
    11  H    0.083538
    12  H    0.085087
 Sum of Mulliken charges =  -0.00000

 Dipole moment (field-independent basis, Debye):
    X=             -0.1043    Y=             -0.1934    Z=              0.1490  Tot=              0.2656
 Quadrupole moment (field-independent basis, Debye-Ang):
   XX=            -31.4783   YY=            -32.1805   ZZ=            -38.4289
   XY=              0.1148   XZ=             -0.1978   YZ=              0.3990

 Normal termination of Gaussian 16 at Fri Nov 10 17:03:29 2023.
