 Gaussian 16, Revision B.01,
 Gaussian 16:  EM64L-G16RevB.01 20-Dec-2017

 ---------------------------------
 # TD=(NStates=1) B3LYP/6-31G(d,p)
 ---------------------------------

 -------
 ABSSPCT
 -------
 Symbolic Z-matrix:
 Charge =  0 Multiplicity = 1

                         Standard orientation:
 ---------------------------------------------------------------------
 Center     Atomic      Atomic             Coordinates (Angstroms)
 Number     Number       Type             X           Y           Z
 ---------------------------------------------------------------------
      1          6           0        1.350273   -0.504584   -0.030064
      2          6           0        1.047700    0.882291    0.007251
      3          6           0       -0.246480    1.364046   -0.019472
      4          6           0       -1.285802    0.473148    0.003957
      5          6           0       -1.081325   -0.858347   -0.044563
      6          6           0        0.238790   -1.312870   -0.032247
      7          1           0        2.243577   -0.903479    0.167125
      8          1           0        0.383773   -2.383777    0.097552
      9          1           0       -1.843099   -1.573565    0.121555
     10          1           0       -2.501803    0.641024    0.245549
     11          1           0       -0.200458    2.462398   -0.140293
     12          1           0        1.779076    1.495290    0.199338
 ---------------------------------------------------------------------

 SCF Done:  E(RB3LYP) =  -232.201719744     A.U. after   13 cycles

 Excitation energies and oscillator strengths:

 Excited State   1:      Singlet-A      5.5382 eV  223.87 nm  f=0.0007  <S**2>=0.000
      20 -> 22        -0.38690
      20 -> 23         0.27998
      21 -> 22         0.30979
      21 -> 23         0.41877
 This state for optimization and/or second-order correction.
 Total Energy, E(TD-HF/TD-DFT) =  -231.998194879
 Copying the excited state density for this state as the 1-particle RhoCI density.

 The electronic state is 1-A.
 Alpha  occ. eigenvalues --  -10.19879 -10.18886 -10.18211 -10.17800 -10.17734
 Alpha  occ. eigenvalues --  -10.17632  -0.85714  -0.75059  -0.74523  -0.60761
 Alpha  occ. eigenvalues --   -0.60023  -0.52453  -0.45984  -0.44943  -0.42227
 Alpha  occ. eigenvalues --   -0.40964  -0.36716  -0.34523  -0.31977  -0.25132
 Alpha  occ. eigenvalues --   -0.24568
 Alpha virt. eigenvalues --    0.00111   0.00239   0.07651   0.13318   0.14310
 Alpha virt. eigenvalues --    0.16129   0.17453   0.20036   0.21315   0.29077
 Alpha virt. eigenvalues --    0.30722   0.32753   0.33806   0.45802   0.52178

 Mulliken charges:
               1
     1  C   -0.054906
     2  C   -0.087730
     3  C   -0.083835
     4  C   -0.089035
     5  C   -0.057130
     6  C   -0.098538
     7  H    0.080556
     8  H    0.071961
     9  H    0.087305
    10  H    0.066387
    11  H    0.090673
    12  H    0.074291
 Sum of Mulliken charges =  -0.00000

 Dipole moment (field-independent basis, Debye):
    X=              0.2631    Y=             -0.1355    Z=              0.3959  Tot=              0.4943
 Quadrupole moment (field-independent basis, Debye-Ang):
   XX=            -31.8473   YY=            -31.9514   ZZ=            -38.0843
   XY=              0.8893   XZ=              0.0790   YZ=             -0.4641

 Normal termination of Gaussian 16 at Fri Nov 10 19:07:16 2023.
