 Gaussian 16, Revision B.01,
 Gaussian 16:  EM64L-G16RevB.01 20-Dec-2017

 ---------------------------------
 # TD=(NStates=1) B3LYP/6-31G(d,p)
 ---------------------------------

 -------
 ABSSPCT
 -------
 Symbolic Z-matrix:
 Charge =  0 Multiplicity = 1

                         Standard orientation:
 ---------------------------------------------------------------------
 Center     Atomic      Atomic             Coordinates (Angstroms)
 Number     Number       Type             X           Y           Z
 ---------------------------------------------------------------------
      1          6           0        0.043933    1.370666   -0.103702
      2          6           0       -1.183207    0.737777    0.014642
      3          6           0       -1.277263   -0.655832    0.026128
      4          6           0       -0.072014   -1.429623    0.024451
      5          6           0        1.215471   -0.755273   -0.072447
      6          6           0        1.307756    0.676960    0.079446
      7          1           0       -0.196149    2.519397   -0.069276
      8          1           0        2.105028    1.175071    0.207363
      9          1           0        2.230314   -1.285747    0.024479
     10          1           0       -0.282247   -2.372485   -0.121578
     11          1           0       -2.135437   -1.059446    0.031871
     12          1           0       -1.929565    1.355159    0.116036
 ---------------------------------------------------------------------

 SCF Done:  E(RB3LYP) =  -232.167927369     A.U. after   12 cycles

 Excitation energies and oscillator strengths:

 Excited State   1:      Singlet-A      5.1155 eV  242.37 nm  f=0.0005  <S**2>=0.000
      20 -> 22         0.47219
      20 -> 23         0.19194
      21 -> 22         0.21791
      21 -> 23        -0.43857
 This state for optimization and/or second-order correction.
 Total Energy, E(TD-HF/TD-DFT) =  -231.979936005
 Copying the excited state density for this state as the 1-particle RhoCI density.

 The electronic state is 1-A.
 Alpha  occ. eigenvalues --  -10.20855 -10.19642 -10.19079 -10.18833 -10.17676
 Alpha  occ. eigenvalues --  -10.17167  -0.83681  -0.74518  -0.73711  -0.61749
 Alpha  occ. eigenvalues --   -0.59529  -0.53005  -0.48242  -0.42834  -0.42665
 Alpha  occ. eigenvalues --   -0.41126  -0.35157  -0.35064  -0.32700  -0.24332
 Alpha  occ. eigenvalues --   -0.24038
 Alpha virt. eigenvalues --   -0.01173  -0.00429   0.09777   0.13346   0.13880
 Alpha virt. eigenvalues --    0.16178   0.18207   0.19240   0.22071   0.27503
 Alpha virt. eigenvalues --    0.29103   0.30795   0.31156   0.46579   0.48198

 Mulliken charges:
               1
     1  C   -0.095257
     2  C   -0.051033
     3  C   -0.060578
     4  C   -0.075238
     5  C   -0.112673
     6  C   -0.059652
     7  H    0.069179
     8  H    0.079663
     9  H    0.084802
    10  H    0.081390
    11  H    0.066764
    12  H    0.072631
 Sum of Mulliken charges =  -0.00000

 Dipole moment (field-independent basis, Debye):
    X=             -0.2047    Y=              0.0479    Z=              0.1449  Tot=              0.2553
 Quadrupole moment (field-independent basis, Debye-Ang):
   XX=            -30.8974   YY=            -31.9071   ZZ=            -38.4133
   XY=              0.2305   XZ=              0.2740   YZ=              0.4957

 Normal termination of Gaussian 16 at Fri Nov 10 18:51:20 2023.
