 Gaussian 16, Revision B.01,
 Gaussian 16:  EM64L-G16RevB.01 20-Dec-2017

 ---------------------------------
 # TD=(NStates=1) B3LYP/6-31G(d,p)
 ---------------------------------

 -------
 ABSSPCT
 -------
 Symbolic Z-matrix:
 Charge =  0 Multiplicity = 1

                         Standard orientation:
 ---------------------------------------------------------------------
 Center     Atomic      Atomic             Coordinates (Angstroms)
 Number     Number       Type             X           Y           Z
 ---------------------------------------------------------------------
      1          6           0        0.989881   -0.945836   -0.020810
      2          6           0       -0.298148   -1.314808   -0.042658
      3          6           0       -1.277016   -0.384792    0.018318
      4          6           0       -1.001061    0.859098   -0.046954
      5          6           0        0.260628    1.391080   -0.031675
      6          6           0        1.346510    0.399503    0.006327
      7          1           0        1.786004   -1.538689    0.200730
      8          1           0        2.447680    0.659951    0.178145
      9          1           0        0.390523    2.442903   -0.045904
     10          1           0       -1.744093    1.570388    0.228828
     11          1           0       -2.457995   -0.661313    0.206862
     12          1           0       -0.546881   -2.498709   -0.063948
 ---------------------------------------------------------------------

 SCF Done:  E(RB3LYP) =  -232.195132921     A.U. after   13 cycles

 Excitation energies and oscillator strengths:

 Excited State   1:      Singlet-A      5.6973 eV  217.62 nm  f=0.0011  <S**2>=0.000
      20 -> 22         0.51593
      21 -> 22         0.10955
      21 -> 23        -0.46719
 This state for optimization and/or second-order correction.
 Total Energy, E(TD-HF/TD-DFT) =  -231.985760864
 Copying the excited state density for this state as the 1-particle RhoCI density.

 The electronic state is 1-A.
 Alpha  occ. eigenvalues --  -10.19831 -10.19210 -10.19031 -10.18468 -10.17547
 Alpha  occ. eigenvalues --  -10.16839  -0.86770  -0.75970  -0.73658  -0.60970
 Alpha  occ. eigenvalues --   -0.59170  -0.51876  -0.45179  -0.44680  -0.42013
 Alpha  occ. eigenvalues --   -0.40603  -0.37848  -0.33236  -0.32347  -0.25979
 Alpha  occ. eigenvalues --   -0.24421
 Alpha virt. eigenvalues --   -0.00644   0.01495   0.06804   0.12458   0.13449
 Alpha virt. eigenvalues --    0.16075   0.16847   0.19727   0.20353   0.28879
 Alpha virt. eigenvalues --    0.30688   0.32687   0.35293   0.46039   0.51889

 Mulliken charges:
               1
     1  C   -0.057351
     2  C   -0.092943
     3  C   -0.061661
     4  C   -0.065207
     5  C   -0.091558
     6  C   -0.112664
     7  H    0.085199
     8  H    0.083795
     9  H    0.088594
    10  H    0.079341
    11  H    0.071602
    12  H    0.072854
 Sum of Mulliken charges =  -0.00000

 Dipole moment (field-independent basis, Debye):
    X=              0.1270    Y=              0.1356    Z=              0.3967  Tot=              0.4381
 Quadrupole moment (field-independent basis, Debye-Ang):
   XX=            -32.0064   YY=            -32.0787   ZZ=            -38.1291
   XY=             -0.3798   XZ=              0.0315   YZ=              0.0719

 Normal termination of Gaussian 16 at Fri Nov 10 17:20:43 2023.
