 Gaussian 16, Revision B.01,
 Gaussian 16:  EM64L-G16RevB.01 20-Dec-2017

 ---------------------------------
 # TD=(NStates=1) B3LYP/6-31G(d,p)
 ---------------------------------

 -------
 ABSSPCT
 -------
 Symbolic Z-matrix:
 Charge =  0 Multiplicity = 1

                         Standard orientation:
 ---------------------------------------------------------------------
 Center     Atomic      Atomic             Coordinates (Angstroms)
 Number     Number       Type             X           Y           Z
 ---------------------------------------------------------------------
      1          6           0       -1.011693    0.936108   -0.039261
      2          6           0        0.331813    1.384951    0.099614
      3          6           0        1.313985    0.397779   -0.071464
      4          6           0        1.050117   -0.976438   -0.017244
      5          6           0       -0.370932   -1.348315    0.016895
      6          6           0       -1.342426   -0.401111   -0.065219
      7          1           0       -1.788907    1.596733   -0.065571
      8          1           0       -2.388213   -0.637298    0.017381
      9          1           0       -0.696212   -2.297575    0.323838
     10          1           0        2.137449   -1.641078    0.141252
     11          1           0        2.304396    0.659754   -0.253642
     12          1           0        0.606305    2.361625    0.296816
 ---------------------------------------------------------------------

 SCF Done:  E(RB3LYP) =  -232.206094335     A.U. after   13 cycles

 Excitation energies and oscillator strengths:

 Excited State   1:      Singlet-A      5.2595 eV  235.73 nm  f=0.0012  <S**2>=0.000
      20 -> 22         0.48654
      20 -> 23         0.11133
      21 -> 22         0.18228
      21 -> 23        -0.46598
 This state for optimization and/or second-order correction.
 Total Energy, E(TD-HF/TD-DFT) =  -232.012811251
 Copying the excited state density for this state as the 1-particle RhoCI density.

 The electronic state is 1-A.
 Alpha  occ. eigenvalues --  -10.21129 -10.18959 -10.18754 -10.18293 -10.18174
 Alpha  occ. eigenvalues --  -10.18112  -0.84539  -0.74916  -0.73148  -0.61044
 Alpha  occ. eigenvalues --   -0.58664  -0.51867  -0.46448  -0.43671  -0.42464
 Alpha  occ. eigenvalues --   -0.40300  -0.36377  -0.33916  -0.33097  -0.24832
 Alpha  occ. eigenvalues --   -0.23716
 Alpha virt. eigenvalues --   -0.01003   0.00448   0.07062   0.12868   0.14120
 Alpha virt. eigenvalues --    0.15892   0.17341   0.19245   0.20245   0.28971
 Alpha virt. eigenvalues --    0.29376   0.31857   0.32215   0.46618   0.50746

 Mulliken charges:
               1
     1  C   -0.089961
     2  C   -0.065985
     3  C   -0.084724
     4  C   -0.090566
     5  C   -0.110485
     6  C   -0.062200
     7  H    0.077514
     8  H    0.087561
     9  H    0.086236
    10  H    0.081821
    11  H    0.082531
    12  H    0.088259
 Sum of Mulliken charges =  -0.00000

 Dipole moment (field-independent basis, Debye):
    X=             -0.0704    Y=              0.2868    Z=              0.3041  Tot=              0.4239
 Quadrupole moment (field-independent basis, Debye-Ang):
   XX=            -30.8369   YY=            -32.4366   ZZ=            -38.3498
   XY=              0.2392   XZ=             -0.1928   YZ=             -0.4233

 Normal termination of Gaussian 16 at Fri Nov 10 17:12:56 2023.
