 Gaussian 16, Revision B.01,
 Gaussian 16:  EM64L-G16RevB.01 20-Dec-2017

 ---------------------------------
 # TD=(NStates=1) B3LYP/6-31G(d,p)
 ---------------------------------

 -------
 ABSSPCT
 -------
 Symbolic Z-matrix:
 Charge =  0 Multiplicity = 1

                         Standard orientation:
 ---------------------------------------------------------------------
 Center     Atomic      Atomic             Coordinates (Angstroms)
 Number     Number       Type             X           Y           Z
 ---------------------------------------------------------------------
      1          6           0       -0.078918    1.352652    0.063766
      2          6           0       -1.215729    0.581219   -0.072833
      3          6           0       -1.226015   -0.734130   -0.058071
      4          6           0        0.069691   -1.365285    0.059531
      5          6           0        1.260159   -0.621903    0.000572
      6          6           0        1.197010    0.771019   -0.051930
      7          1           0       -0.302672    2.465034    0.191602
      8          1           0        2.053973    1.358861   -0.030108
      9          1           0        2.222850   -1.173887   -0.089140
     10          1           0        0.162259   -2.467982    0.142580
     11          1           0       -2.089694   -1.088068    0.053963
     12          1           0       -2.083902    1.004610    0.084884
 ---------------------------------------------------------------------

 SCF Done:  E(RB3LYP) =  -232.202395477     A.U. after   13 cycles

 Excitation energies and oscillator strengths:

 Excited State   1:      Singlet-A      5.4835 eV  226.10 nm  f=0.0031  <S**2>=0.000
      20 -> 22         0.45469
      20 -> 23        -0.13245
      21 -> 22         0.22186
      21 -> 23         0.47551
 This state for optimization and/or second-order correction.
 Total Energy, E(TD-HF/TD-DFT) =  -232.000879359
 Copying the excited state density for this state as the 1-particle RhoCI density.

 The electronic state is 1-A.
 Alpha  occ. eigenvalues --  -10.19397 -10.19205 -10.18886 -10.18681 -10.16914
 Alpha  occ. eigenvalues --  -10.16128  -0.85331  -0.76026  -0.73085  -0.61617
 Alpha  occ. eigenvalues --   -0.59197  -0.52509  -0.47049  -0.44006  -0.42920
 Alpha  occ. eigenvalues --   -0.40327  -0.36128  -0.34646  -0.33383  -0.25576
 Alpha  occ. eigenvalues --   -0.23773
 Alpha virt. eigenvalues --   -0.00643   0.00940   0.09581   0.14068   0.15827
 Alpha virt. eigenvalues --    0.15973   0.17415   0.18226   0.22731   0.28800
 Alpha virt. eigenvalues --    0.30776   0.31558   0.33062   0.46623   0.52306

 Mulliken charges:
               1
     1  C   -0.087069
     2  C   -0.067620
     3  C   -0.028177
     4  C   -0.109457
     5  C   -0.083373
     6  C   -0.086188
     7  H    0.077520
     8  H    0.086404
     9  H    0.088689
    10  H    0.078801
    11  H    0.062015
    12  H    0.068455
 Sum of Mulliken charges =  -0.00000

 Dipole moment (field-independent basis, Debye):
    X=             -0.1196    Y=              0.0359    Z=              0.1973  Tot=              0.2335
 Quadrupole moment (field-independent basis, Debye-Ang):
   XX=            -30.8307   YY=            -32.2915   ZZ=            -38.1442
   XY=             -0.1888   XZ=             -0.5241   YZ=              0.1568

 Normal termination of Gaussian 16 at Fri Nov 10 18:04:17 2023.
