 Gaussian 16, Revision B.01,
 Gaussian 16:  EM64L-G16RevB.01 20-Dec-2017

 ---------------------------------
 # TD=(NStates=1) B3LYP/6-31G(d,p)
 ---------------------------------

 -------
 ABSSPCT
 -------
 Symbolic Z-matrix:
 Charge =  0 Multiplicity = 1

                         Standard orientation:
 ---------------------------------------------------------------------
 Center     Atomic      Atomic             Coordinates (Angstroms)
 Number     Number       Type             X           Y           Z
 ---------------------------------------------------------------------
      1          6           0        1.218722   -0.663412    0.033973
      2          6           0        0.007042   -1.412902    0.000812
      3          6           0       -1.207525   -0.697934    0.014355
      4          6           0       -1.216769    0.672749   -0.044089
      5          6           0        0.002804    1.411271    0.037069
      6          6           0        1.220717    0.660027   -0.057582
      7          1           0        2.133524   -1.212396    0.008624
      8          1           0        2.078592    1.338220    0.021263
      9          1           0       -0.023921    2.409074    0.105234
     10          1           0       -2.271889    1.232994   -0.053886
     11          1           0       -2.087915   -1.255835    0.108058
     12          1           0        0.021669   -2.330861   -0.096516
 ---------------------------------------------------------------------

 SCF Done:  E(RB3LYP) =  -232.205961492     A.U. after   13 cycles

 Excitation energies and oscillator strengths:

 Excited State   1:      Singlet-A      5.4346 eV  228.14 nm  f=0.0004  <S**2>=0.000
      20 -> 22         0.51697
      21 -> 23         0.48100
 This state for optimization and/or second-order correction.
 Total Energy, E(TD-HF/TD-DFT) =  -232.006244994
 Copying the excited state density for this state as the 1-particle RhoCI density.

 The electronic state is 1-A.
 Alpha  occ. eigenvalues --  -10.19657 -10.18529 -10.18487 -10.18197 -10.18187
 Alpha  occ. eigenvalues --  -10.17459  -0.84744  -0.74739  -0.74001  -0.61871
 Alpha  occ. eigenvalues --   -0.59007  -0.52205  -0.47710  -0.44251  -0.41511
 Alpha  occ. eigenvalues --   -0.41054  -0.36456  -0.35734  -0.31991  -0.25378
 Alpha  occ. eigenvalues --   -0.23727
 Alpha virt. eigenvalues --   -0.01055   0.01153   0.09527   0.13416   0.15382
 Alpha virt. eigenvalues --    0.16303   0.17867   0.19326   0.20719   0.29057
 Alpha virt. eigenvalues --    0.29840   0.31082   0.34042   0.46690   0.52216

 Mulliken charges:
               1
     1  C   -0.086014
     2  C   -0.044935
     3  C   -0.078086
     4  C   -0.087365
     5  C   -0.082790
     6  C   -0.079635
     7  H    0.080983
     8  H    0.082434
     9  H    0.082457
    10  H    0.072500
    11  H    0.082876
    12  H    0.057575
 Sum of Mulliken charges =  -0.00000

 Dipole moment (field-independent basis, Debye):
    X=              0.0093    Y=             -0.0633    Z=              0.0632  Tot=              0.0899
 Quadrupole moment (field-independent basis, Debye-Ang):
   XX=            -32.0251   YY=            -30.9539   ZZ=            -38.2741
   XY=              0.2214   XZ=             -0.0555   YZ=              0.3031

 Normal termination of Gaussian 16 at Fri Nov 10 18:00:58 2023.
