 Gaussian 16, Revision B.01,
 Gaussian 16:  EM64L-G16RevB.01 20-Dec-2017

 ---------------------------------
 # TD=(NStates=1) B3LYP/6-31G(d,p)
 ---------------------------------

 -------
 ABSSPCT
 -------
 Symbolic Z-matrix:
 Charge =  0 Multiplicity = 1

                         Standard orientation:
 ---------------------------------------------------------------------
 Center     Atomic      Atomic             Coordinates (Angstroms)
 Number     Number       Type             X           Y           Z
 ---------------------------------------------------------------------
      1          6           0       -0.731129    1.132963    0.022044
      2          6           0       -1.389816   -0.022139    0.002744
      3          6           0       -0.693996   -1.220041   -0.086686
      4          6           0        0.742395   -1.133300    0.012404
      5          6           0        1.438317    0.045067   -0.010854
      6          6           0        0.624825    1.206395   -0.023714
      7          1           0       -1.360111    2.116739   -0.042214
      8          1           0        1.187034    2.156326    0.073426
      9          1           0        2.441808    0.046002    0.039593
     10          1           0        1.398540   -2.025188    0.140368
     11          1           0       -1.123428   -2.168841    0.130266
     12          1           0       -2.487424   -0.178706    0.162931
 ---------------------------------------------------------------------

 SCF Done:  E(RB3LYP) =  -232.226643427     A.U. after   13 cycles

 Excitation energies and oscillator strengths:

 Excited State   1:      Singlet-A      5.5503 eV  223.38 nm  f=0.0025  <S**2>=0.000
      20 -> 22         0.49574
      20 -> 23        -0.13588
      21 -> 22         0.20167
      21 -> 23         0.44100
 This state for optimization and/or second-order correction.
 Total Energy, E(TD-HF/TD-DFT) =  -232.022673647
 Copying the excited state density for this state as the 1-particle RhoCI density.

 The electronic state is 1-A.
 Alpha  occ. eigenvalues --  -10.18932 -10.18884 -10.18752 -10.18714 -10.18644
 Alpha  occ. eigenvalues --  -10.17851  -0.85581  -0.75290  -0.73561  -0.60648
 Alpha  occ. eigenvalues --   -0.59192  -0.51916  -0.45925  -0.44493  -0.42372
 Alpha  occ. eigenvalues --   -0.40386  -0.36549  -0.34610  -0.32224  -0.25413
 Alpha  occ. eigenvalues --   -0.24388
 Alpha virt. eigenvalues --   -0.00679   0.01046   0.08229   0.13582   0.14477
 Alpha virt. eigenvalues --    0.16048   0.17016   0.18771   0.20230   0.28975
 Alpha virt. eigenvalues --    0.30308   0.32393   0.33068   0.46176   0.52186

 Mulliken charges:
               1
     1  C   -0.066363
     2  C   -0.085660
     3  C   -0.088598
     4  C   -0.102120
     5  C   -0.050078
     6  C   -0.100188
     7  H    0.077592
     8  H    0.081915
     9  H    0.081730
    10  H    0.074082
    11  H    0.089591
    12  H    0.088094
 Sum of Mulliken charges =  -0.00000

 Dipole moment (field-independent basis, Debye):
    X=              0.1437    Y=             -0.0644    Z=              0.3055  Tot=              0.3437
 Quadrupole moment (field-independent basis, Debye-Ang):
   XX=            -31.1556   YY=            -32.4576   ZZ=            -38.3232
   XY=              0.3054   XZ=             -0.0865   YZ=             -0.4695

 Normal termination of Gaussian 16 at Fri Nov 10 16:24:50 2023.
