 Gaussian 16, Revision B.01,
 Gaussian 16:  EM64L-G16RevB.01 20-Dec-2017

 ---------------------------------
 # TD=(NStates=1) B3LYP/6-31G(d,p)
 ---------------------------------

 -------
 ABSSPCT
 -------
 Symbolic Z-matrix:
 Charge =  0 Multiplicity = 1

                         Standard orientation:
 ---------------------------------------------------------------------
 Center     Atomic      Atomic             Coordinates (Angstroms)
 Number     Number       Type             X           Y           Z
 ---------------------------------------------------------------------
      1          6           0       -1.110434    0.863933   -0.026432
      2          6           0       -1.289767   -0.455599    0.071415
      3          6           0       -0.233377   -1.412307    0.044751
      4          6           0        1.066722   -0.862577   -0.057210
      5          6           0        1.291210    0.509819   -0.035725
      6          6           0        0.208987    1.362476    0.026023
      7          1           0       -2.018855    1.447062   -0.243367
      8          1           0        0.555902    2.464800   -0.000215
      9          1           0        2.351899    0.803377    0.326176
     10          1           0        2.076806   -1.449516   -0.117562
     11          1           0       -0.243458   -2.345808   -0.096908
     12          1           0       -2.322343   -0.954384   -0.005056
 ---------------------------------------------------------------------

 SCF Done:  E(RB3LYP) =  -232.200424890     A.U. after   12 cycles

 Excitation energies and oscillator strengths:

 Excited State   1:      Singlet-A      5.4191 eV  228.79 nm  f=0.0005  <S**2>=0.000
      20 -> 22         0.49380
      21 -> 22         0.11945
      21 -> 23         0.48358
 This state for optimization and/or second-order correction.
 Total Energy, E(TD-HF/TD-DFT) =  -232.001275058
 Copying the excited state density for this state as the 1-particle RhoCI density.

 The electronic state is 1-A.
 Alpha  occ. eigenvalues --  -10.19782 -10.19587 -10.19334 -10.19161 -10.18802
 Alpha  occ. eigenvalues --  -10.18091  -0.85240  -0.74637  -0.74118  -0.61092
 Alpha  occ. eigenvalues --   -0.58418  -0.51911  -0.45435  -0.43981  -0.41828
 Alpha  occ. eigenvalues --   -0.41101  -0.36331  -0.33479  -0.32495  -0.25277
 Alpha  occ. eigenvalues --   -0.24423
 Alpha virt. eigenvalues --   -0.00859   0.00266   0.07810   0.11879   0.13936
 Alpha virt. eigenvalues --    0.15299   0.16532   0.18424   0.19332   0.28684
 Alpha virt. eigenvalues --    0.29730   0.31986   0.32870   0.46120   0.50580

 Mulliken charges:
               1
     1  C   -0.068782
     2  C   -0.099967
     3  C   -0.042411
     4  C   -0.100792
     5  C   -0.079802
     6  C   -0.101884
     7  H    0.093949
     8  H    0.083612
     9  H    0.086574
    10  H    0.074860
    11  H    0.073443
    12  H    0.081200
 Sum of Mulliken charges =  -0.00000

 Dipole moment (field-independent basis, Debye):
    X=             -0.0409    Y=             -0.1283    Z=             -0.0916  Tot=              0.1628
 Quadrupole moment (field-independent basis, Debye-Ang):
   XX=            -31.6661   YY=            -32.3441   ZZ=            -38.4179
   XY=              0.0674   XZ=              0.9090   YZ=              0.2339

 Normal termination of Gaussian 16 at Fri Nov 10 16:23:56 2023.
