 Gaussian 16, Revision B.01,
 Gaussian 16:  EM64L-G16RevB.01 20-Dec-2017

 ---------------------------------
 # TD=(NStates=1) B3LYP/6-31G(d,p)
 ---------------------------------

 -------
 ABSSPCT
 -------
 Symbolic Z-matrix:
 Charge =  0 Multiplicity = 1

                         Standard orientation:
 ---------------------------------------------------------------------
 Center     Atomic      Atomic             Coordinates (Angstroms)
 Number     Number       Type             X           Y           Z
 ---------------------------------------------------------------------
      1          6           0       -0.287330   -1.374465    0.016540
      2          6           0       -1.375964   -0.442797    0.017424
      3          6           0       -1.040729    0.923768   -0.042510
      4          6           0        0.302493    1.353797   -0.004413
      5          6           0        1.371985    0.444737    0.054600
      6          6           0        1.023015   -0.938367   -0.082286
      7          1           0       -0.300639   -2.411434    0.145361
      8          1           0        1.909146   -1.561554    0.045077
      9          1           0        2.366154    0.696537   -0.025207
     10          1           0        0.605522    2.526527    0.044453
     11          1           0       -1.993134    1.592320    0.086495
     12          1           0       -2.547865   -0.642425   -0.052321
 ---------------------------------------------------------------------

 SCF Done:  E(RB3LYP) =  -232.214465177     A.U. after   13 cycles

 Excitation energies and oscillator strengths:

 Excited State   1:      Singlet-A      5.3237 eV  232.89 nm  f=0.0016  <S**2>=0.000
      20 -> 22         0.43169
      20 -> 23        -0.26147
      21 -> 22         0.31805
      21 -> 23         0.37900
 This state for optimization and/or second-order correction.
 Total Energy, E(TD-HF/TD-DFT) =  -232.018824148
 Copying the excited state density for this state as the 1-particle RhoCI density.

 The electronic state is 1-A.
 Alpha  occ. eigenvalues --  -10.20838 -10.20545 -10.20139 -10.19181 -10.18930
 Alpha  occ. eigenvalues --  -10.18777  -0.84237  -0.73958  -0.73618  -0.60229
 Alpha  occ. eigenvalues --   -0.58596  -0.51177  -0.45120  -0.44480  -0.41055
 Alpha  occ. eigenvalues --   -0.40019  -0.36303  -0.34336  -0.32001  -0.24787
 Alpha  occ. eigenvalues --   -0.24652
 Alpha virt. eigenvalues --   -0.00992  -0.00058   0.06961   0.12172   0.13365
 Alpha virt. eigenvalues --    0.14856   0.16160   0.16855   0.19966   0.27510
 Alpha virt. eigenvalues --    0.29433   0.30156   0.32421   0.46844   0.49417

 Mulliken charges:
               1
     1  C   -0.081935
     2  C   -0.090439
     3  C   -0.083971
     4  C   -0.087042
     5  C   -0.075757
     6  C   -0.096766
     7  H    0.088394
     8  H    0.084824
     9  H    0.090543
    10  H    0.073536
    11  H    0.086358
    12  H    0.092256
 Sum of Mulliken charges =  -0.00000

 Dipole moment (field-independent basis, Debye):
    X=              0.1272    Y=             -0.0975    Z=              0.1551  Tot=              0.2230
 Quadrupole moment (field-independent basis, Debye-Ang):
   XX=            -30.6903   YY=            -32.8224   ZZ=            -38.8828
   XY=             -0.2885   XZ=             -0.0093   YZ=             -0.1721

 Normal termination of Gaussian 16 at Fri Nov 10 17:36:16 2023.
