 Gaussian 16, Revision B.01,
 Gaussian 16:  EM64L-G16RevB.01 20-Dec-2017

 ---------------------------------
 # TD=(NStates=1) B3LYP/6-31G(d,p)
 ---------------------------------

 -------
 ABSSPCT
 -------
 Symbolic Z-matrix:
 Charge =  0 Multiplicity = 1

                         Standard orientation:
 ---------------------------------------------------------------------
 Center     Atomic      Atomic             Coordinates (Angstroms)
 Number     Number       Type             X           Y           Z
 ---------------------------------------------------------------------
      1          6           0       -0.164243    1.423915   -0.058837
      2          6           0        1.115916    0.812813    0.028494
      3          6           0        1.269335   -0.528310    0.049464
      4          6           0        0.220482   -1.343760   -0.052732
      5          6           0       -1.163865   -0.872897    0.025909
      6          6           0       -1.268213    0.517658   -0.059523
      7          1           0       -0.308056    2.472009    0.009906
      8          1           0       -2.340314    0.861111    0.114783
      9          1           0       -1.970202   -1.481338    0.285332
     10          1           0        0.349086   -2.293149   -0.057246
     11          1           0        2.302076   -1.204107   -0.180317
     12          1           0        1.910930    1.588958    0.230886
 ---------------------------------------------------------------------

 SCF Done:  E(RB3LYP) =  -232.195358263     A.U. after   13 cycles

 Excitation energies and oscillator strengths:

 Excited State   1:      Singlet-A      5.3805 eV  230.43 nm  f=0.0004  <S**2>=0.000
      20 -> 22         0.51761
      21 -> 23        -0.48019
 This state for optimization and/or second-order correction.
 Total Energy, E(TD-HF/TD-DFT) =  -231.997629061
 Copying the excited state density for this state as the 1-particle RhoCI density.

 The electronic state is 1-A.
 Alpha  occ. eigenvalues --  -10.19538 -10.19511 -10.19462 -10.19379 -10.18879
 Alpha  occ. eigenvalues --  -10.17373  -0.85029  -0.74495  -0.74026  -0.61295
 Alpha  occ. eigenvalues --   -0.58739  -0.51409  -0.46768  -0.44471  -0.41913
 Alpha  occ. eigenvalues --   -0.40002  -0.36622  -0.34849  -0.31213  -0.25362
 Alpha  occ. eigenvalues --   -0.24120
 Alpha virt. eigenvalues --   -0.01252   0.00560   0.07562   0.11882   0.14330
 Alpha virt. eigenvalues --    0.15217   0.17413   0.18587   0.20603   0.28358
 Alpha virt. eigenvalues --    0.28906   0.32278   0.33297   0.46037   0.49201

 Mulliken charges:
               1
     1  C   -0.074981
     2  C   -0.107169
     3  C   -0.061298
     4  C   -0.063234
     5  C   -0.078617
     6  C   -0.099690
     7  H    0.095115
     8  H    0.072334
     9  H    0.094147
    10  H    0.068764
    11  H    0.069848
    12  H    0.084780
 Sum of Mulliken charges =  -0.00000

 Dipole moment (field-independent basis, Debye):
    X=             -0.2007    Y=             -0.0614    Z=              0.2583  Tot=              0.3328
 Quadrupole moment (field-independent basis, Debye-Ang):
   XX=            -32.7206   YY=            -30.9815   ZZ=            -38.3861
   XY=              0.2910   XZ=             -0.7126   YZ=              0.3069

 Normal termination of Gaussian 16 at Fri Nov 10 16:10:21 2023.
