 Gaussian 16, Revision B.01,
 Gaussian 16:  EM64L-G16RevB.01 20-Dec-2017

 ---------------------------------
 # TD=(NStates=1) B3LYP/6-31G(d,p)
 ---------------------------------

 -------
 ABSSPCT
 -------
 Symbolic Z-matrix:
 Charge =  0 Multiplicity = 1

                         Standard orientation:
 ---------------------------------------------------------------------
 Center     Atomic      Atomic             Coordinates (Angstroms)
 Number     Number       Type             X           Y           Z
 ---------------------------------------------------------------------
      1          6           0       -1.277292   -0.539794   -0.030710
      2          6           0       -1.062496    0.791296    0.017651
      3          6           0        0.155184    1.361786   -0.022093
      4          6           0        1.301884    0.516775   -0.059795
      5          6           0        1.111101   -0.839382   -0.012071
      6          6           0       -0.218030   -1.263250   -0.012529
      7          1           0       -2.341755   -0.836147   -0.088158
      8          1           0       -0.373620   -2.552659    0.240702
      9          1           0        1.890247   -1.618301    0.171470
     10          1           0        2.386954    0.799288    0.029992
     11          1           0        0.329852    2.489534    0.274313
     12          1           0       -1.953777    1.553692    0.088963
 ---------------------------------------------------------------------

 SCF Done:  E(RB3LYP) =  -232.190527798     A.U. after   13 cycles

 Excitation energies and oscillator strengths:

 Excited State   1:      Singlet-A      5.7701 eV  214.87 nm  f=0.0031  <S**2>=0.000
      20 -> 23        -0.43725
      21 -> 22         0.54455
 This state for optimization and/or second-order correction.
 Total Energy, E(TD-HF/TD-DFT) =  -231.978478988
 Copying the excited state density for this state as the 1-particle RhoCI density.

 The electronic state is 1-A.
 Alpha  occ. eigenvalues --  -10.19680 -10.19654 -10.19573 -10.19038 -10.18868
 Alpha  occ. eigenvalues --  -10.17986  -0.87182  -0.75653  -0.74062  -0.59966
 Alpha  occ. eigenvalues --   -0.59200  -0.51402  -0.46176  -0.42796  -0.42281
 Alpha  occ. eigenvalues --   -0.39617  -0.37889  -0.34001  -0.30981  -0.25945
 Alpha  occ. eigenvalues --   -0.25135
 Alpha virt. eigenvalues --    0.00174   0.00634   0.05440   0.10535   0.12635
 Alpha virt. eigenvalues --    0.15628   0.16595   0.18044   0.18838   0.29449
 Alpha virt. eigenvalues --    0.30015   0.32893   0.36115   0.44125   0.51554

 Mulliken charges:
               1
     1  C   -0.034000
     2  C   -0.095515
     3  C   -0.082940
     4  C   -0.109774
     5  C   -0.064459
     6  C   -0.087377
     7  H    0.096252
     8  H    0.032769
     9  H    0.096201
    10  H    0.088395
    11  H    0.086028
    12  H    0.074421
 Sum of Mulliken charges =  -0.00000

 Dipole moment (field-independent basis, Debye):
    X=              0.0461    Y=              0.1431    Z=              0.3527  Tot=              0.3835
 Quadrupole moment (field-independent basis, Debye-Ang):
   XX=            -31.3488   YY=            -33.4373   ZZ=            -38.3641
   XY=             -0.4141   XZ=              0.4450   YZ=              0.1487

 Normal termination of Gaussian 16 at Fri Nov 10 18:19:55 2023.
