 Gaussian 16, Revision B.01,
 Gaussian 16:  EM64L-G16RevB.01 20-Dec-2017

 ---------------------------------
 # TD=(NStates=1) B3LYP/6-31G(d,p)
 ---------------------------------

 -------
 ABSSPCT
 -------
 Symbolic Z-matrix:
 Charge =  0 Multiplicity = 1

                         Standard orientation:
 ---------------------------------------------------------------------
 Center     Atomic      Atomic             Coordinates (Angstroms)
 Number     Number       Type             X           Y           Z
 ---------------------------------------------------------------------
      1          6           0        1.351572    0.404431    0.022180
      2          6           0        0.304016    1.387197   -0.023015
      3          6           0       -1.056068    0.935580    0.011059
      4          6           0       -1.314213   -0.433956    0.012856
      5          6           0       -0.275700   -1.381231   -0.010106
      6          6           0        0.997222   -0.916905   -0.070793
      7          1           0        2.318240    0.625735    0.130871
      8          1           0        1.909389   -1.574603    0.052452
      9          1           0       -0.604042   -2.409439    0.198701
     10          1           0       -2.410423   -0.693980   -0.066901
     11          1           0       -1.925642    1.700134    0.009897
     12          1           0        0.671508    2.381460    0.021886
 ---------------------------------------------------------------------

 SCF Done:  E(RB3LYP) =  -232.228816400     A.U. after   13 cycles

 Excitation energies and oscillator strengths:

 Excited State   1:      Singlet-A      5.4308 eV  228.30 nm  f=0.0003  <S**2>=0.000
      20 -> 22         0.50412
      21 -> 23         0.48427
 This state for optimization and/or second-order correction.
 Total Energy, E(TD-HF/TD-DFT) =  -232.029239092
 Copying the excited state density for this state as the 1-particle RhoCI density.

 The electronic state is 1-A.
 Alpha  occ. eigenvalues --  -10.19960 -10.19332 -10.19278 -10.18986 -10.18562
 Alpha  occ. eigenvalues --  -10.17929  -0.84773  -0.74390  -0.73703  -0.60640
 Alpha  occ. eigenvalues --   -0.58996  -0.51520  -0.46200  -0.44056  -0.41642
 Alpha  occ. eigenvalues --   -0.40786  -0.36181  -0.34723  -0.32345  -0.25070
 Alpha  occ. eigenvalues --   -0.24244
 Alpha virt. eigenvalues --   -0.00672   0.00521   0.08368   0.13120   0.14561
 Alpha virt. eigenvalues --    0.15741   0.16774   0.17665   0.20496   0.28650
 Alpha virt. eigenvalues --    0.30209   0.30516   0.33312   0.46276   0.51725

 Mulliken charges:
               1
     1  C   -0.061809
     2  C   -0.095763
     3  C   -0.085339
     4  C   -0.094737
     5  C   -0.079461
     6  C   -0.086252
     7  H    0.080115
     8  H    0.072719
     9  H    0.094060
    10  H    0.085151
    11  H    0.085572
    12  H    0.085743
 Sum of Mulliken charges =  -0.00000

 Dipole moment (field-independent basis, Debye):
    X=              0.0867    Y=              0.0766    Z=              0.2131  Tot=              0.2425
 Quadrupole moment (field-independent basis, Debye-Ang):
   XX=            -31.1044   YY=            -32.2362   ZZ=            -38.5367
   XY=              0.4527   XZ=              0.3868   YZ=             -0.3075

 Normal termination of Gaussian 16 at Fri Nov 10 19:26:34 2023.
