 Gaussian 16, Revision B.01,
 Gaussian 16:  EM64L-G16RevB.01 20-Dec-2017

 ---------------------------------
 # TD=(NStates=1) B3LYP/6-31G(d,p)
 ---------------------------------

 -------
 ABSSPCT
 -------
 Symbolic Z-matrix:
 Charge =  0 Multiplicity = 1

                         Standard orientation:
 ---------------------------------------------------------------------
 Center     Atomic      Atomic             Coordinates (Angstroms)
 Number     Number       Type             X           Y           Z
 ---------------------------------------------------------------------
      1          6           0        1.010928    0.937140   -0.012611
      2          6           0        1.351177   -0.418957   -0.060095
      3          6           0        0.310476   -1.332354    0.061248
      4          6           0       -0.999980   -0.911818   -0.046831
      5          6           0       -1.354972    0.359842   -0.004007
      6          6           0       -0.332246    1.352050    0.052661
      7          1           0        1.835504    1.774348    0.144011
      8          1           0       -0.497679    2.370997   -0.029517
      9          1           0       -2.329912    0.562735   -0.133060
     10          1           0       -1.867688   -1.511936    0.053568
     11          1           0        0.620963   -2.341588    0.176504
     12          1           0        2.326508   -0.769971   -0.153698
 ---------------------------------------------------------------------

 SCF Done:  E(RB3LYP) =  -232.222823239     A.U. after   12 cycles

 Excitation energies and oscillator strengths:

 Excited State   1:      Singlet-A      5.5075 eV  225.12 nm  f=0.0011  <S**2>=0.000
      20 -> 22         0.46910
      20 -> 23        -0.12595
      21 -> 22         0.18986
      21 -> 23         0.47704
 This state for optimization and/or second-order correction.
 Total Energy, E(TD-HF/TD-DFT) =  -232.020424814
 Copying the excited state density for this state as the 1-particle RhoCI density.

 The electronic state is 1-A.
 Alpha  occ. eigenvalues --  -10.19617 -10.18402 -10.18371 -10.18338 -10.17389
 Alpha  occ. eigenvalues --  -10.17293  -0.85399  -0.75376  -0.73729  -0.61121
 Alpha  occ. eigenvalues --   -0.59216  -0.52597  -0.46587  -0.44050  -0.42595
 Alpha  occ. eigenvalues --   -0.40669  -0.36760  -0.34817  -0.32640  -0.25286
 Alpha  occ. eigenvalues --   -0.24112
 Alpha virt. eigenvalues --   -0.00420   0.00815   0.09428   0.13600   0.15343
 Alpha virt. eigenvalues --    0.16381   0.18159   0.19179   0.20819   0.29643
 Alpha virt. eigenvalues --    0.30362   0.31943   0.33018   0.46373   0.52128

 Mulliken charges:
               1
     1  C   -0.096688
     2  C   -0.075816
     3  C   -0.087798
     4  C   -0.069196
     5  C   -0.068616
     6  C   -0.083842
     7  H    0.075884
     8  H    0.082320
     9  H    0.078820
    10  H    0.076311
    11  H    0.081757
    12  H    0.086864
 Sum of Mulliken charges =  -0.00000

 Dipole moment (field-independent basis, Debye):
    X=             -0.0345    Y=             -0.0669    Z=              0.0218  Tot=              0.0784
 Quadrupole moment (field-independent basis, Debye-Ang):
   XX=            -31.1597   YY=            -32.1081   ZZ=            -38.1522
   XY=             -0.3833   XZ=              0.1594   YZ=             -0.2349

 Normal termination of Gaussian 16 at Fri Nov 10 17:43:00 2023.
