 Gaussian 16, Revision B.01,
 Gaussian 16:  EM64L-G16RevB.01 20-Dec-2017

 ---------------------------------
 # TD=(NStates=1) B3LYP/6-31G(d,p)
 ---------------------------------

 -------
 ABSSPCT
 -------
 Symbolic Z-matrix:
 Charge =  0 Multiplicity = 1

                         Standard orientation:
 ---------------------------------------------------------------------
 Center     Atomic      Atomic             Coordinates (Angstroms)
 Number     Number       Type             X           Y           Z
 ---------------------------------------------------------------------
      1          6           0        1.426390    0.246802    0.041713
      2          6           0        0.465572    1.332105   -0.048454
      3          6           0       -0.939725    1.040197   -0.003746
      4          6           0       -1.315672   -0.239122   -0.013459
      5          6           0       -0.454700   -1.325915   -0.096159
      6          6           0        0.830379   -1.066015    0.101263
      7          1           0        2.420210    0.314217   -0.041782
      8          1           0        1.667058   -1.768539   -0.139842
      9          1           0       -0.898565   -2.168681    0.087729
     10          1           0       -2.526145   -0.430107    0.071080
     11          1           0       -1.584318    1.853421    0.262476
     12          1           0        0.848297    2.271379   -0.126604
 ---------------------------------------------------------------------

 SCF Done:  E(RB3LYP) =  -232.189186208     A.U. after   13 cycles

 Excitation energies and oscillator strengths:

 Excited State   1:      Singlet-A      5.3437 eV  232.02 nm  f=0.0010  <S**2>=0.000
      20 -> 22         0.49257
      20 -> 23         0.15948
      21 -> 22        -0.17752
      21 -> 23         0.44699
 This state for optimization and/or second-order correction.
 Total Energy, E(TD-HF/TD-DFT) =  -231.992809774
 Copying the excited state density for this state as the 1-particle RhoCI density.

 The electronic state is 1-A.
 Alpha  occ. eigenvalues --  -10.19389 -10.19148 -10.18745 -10.18638 -10.18513
 Alpha  occ. eigenvalues --  -10.17128  -0.85305  -0.74937  -0.74107  -0.61425
 Alpha  occ. eigenvalues --   -0.59265  -0.52747  -0.46487  -0.44227  -0.42468
 Alpha  occ. eigenvalues --   -0.41745  -0.36061  -0.33915  -0.32256  -0.24970
 Alpha  occ. eigenvalues --   -0.24466
 Alpha virt. eigenvalues --   -0.00934   0.00026   0.08418   0.13542   0.14782
 Alpha virt. eigenvalues --    0.15814   0.18127   0.19365   0.20341   0.27846
 Alpha virt. eigenvalues --    0.29003   0.31245   0.34779   0.45335   0.48618

 Mulliken charges:
               1
     1  C   -0.075673
     2  C   -0.094763
     3  C   -0.065551
     4  C   -0.097675
     5  C   -0.042909
     6  C   -0.103074
     7  H    0.085978
     8  H    0.073646
     9  H    0.085145
    10  H    0.061680
    11  H    0.092547
    12  H    0.080649
 Sum of Mulliken charges =  -0.00000

 Dipole moment (field-independent basis, Debye):
    X=              0.1330    Y=              0.2249    Z=              0.0623  Tot=              0.2686
 Quadrupole moment (field-independent basis, Debye-Ang):
   XX=            -31.4879   YY=            -32.2642   ZZ=            -38.1748
   XY=              0.2401   XZ=             -0.9511   YZ=              0.1593

 Normal termination of Gaussian 16 at Fri Nov 10 16:08:00 2023.
