 Gaussian 16, Revision B.01,
 Gaussian 16:  EM64L-G16RevB.01 20-Dec-2017

 ---------------------------------
 # TD=(NStates=1) B3LYP/6-31G(d,p)
 ---------------------------------

 -------
 ABSSPCT
 -------
 Symbolic Z-matrix:
 Charge =  0 Multiplicity = 1

                         Standard orientation:
 ---------------------------------------------------------------------
 Center     Atomic      Atomic             Coordinates (Angstroms)
 Number     Number       Type             X           Y           Z
 ---------------------------------------------------------------------
      1          6           0        1.063733   -0.933525   -0.043227
      2          6           0        1.346172    0.443679    0.057418
      3          6           0        0.314890    1.325513   -0.000430
      4          6           0       -1.069607    0.923314    0.029801
      5          6           0       -1.377090   -0.473150   -0.012971
      6          6           0       -0.266643   -1.340592   -0.011394
      7          1           0        1.912831   -1.562752   -0.108523
      8          1           0       -0.460968   -2.415921    0.252450
      9          1           0       -2.304460   -0.782546   -0.047386
     10          1           0       -1.904918    1.663566   -0.142264
     11          1           0        0.382648    2.557136    0.008973
     12          1           0        2.306144    0.869086   -0.078439
 ---------------------------------------------------------------------

 SCF Done:  E(RB3LYP) =  -232.216912269     A.U. after   13 cycles

 Excitation energies and oscillator strengths:

 Excited State   1:      Singlet-A      5.3173 eV  233.17 nm  f=0.0024  <S**2>=0.000
      20 -> 22         0.40744
      20 -> 23        -0.24901
      21 -> 22         0.33243
      21 -> 23         0.40108
 This state for optimization and/or second-order correction.
 Total Energy, E(TD-HF/TD-DFT) =  -232.021504013
 Copying the excited state density for this state as the 1-particle RhoCI density.

 The electronic state is 1-A.
 Alpha  occ. eigenvalues --  -10.20133 -10.19798 -10.19322 -10.19038 -10.18598
 Alpha  occ. eigenvalues --  -10.18498  -0.84484  -0.74765  -0.73114  -0.60686
 Alpha  occ. eigenvalues --   -0.59074  -0.51315  -0.46587  -0.44229  -0.42040
 Alpha  occ. eigenvalues --   -0.39944  -0.36051  -0.34983  -0.31939  -0.25058
 Alpha  occ. eigenvalues --   -0.24165
 Alpha virt. eigenvalues --   -0.00885   0.00053   0.08149   0.12708   0.14785
 Alpha virt. eigenvalues --    0.15093   0.16919   0.18331   0.19241   0.28313
 Alpha virt. eigenvalues --    0.29822   0.30454   0.32594   0.46411   0.51519

 Mulliken charges:
               1
     1  C   -0.083645
     2  C   -0.082655
     3  C   -0.078616
     4  C   -0.099396
     5  C   -0.056686
     6  C   -0.098138
     7  H    0.091884
     8  H    0.080964
     9  H    0.080104
    10  H    0.085962
    11  H    0.069764
    12  H    0.090458
 Sum of Mulliken charges =  -0.00000

 Dipole moment (field-independent basis, Debye):
    X=             -0.0357    Y=             -0.0620    Z=             -0.0835  Tot=              0.1100
 Quadrupole moment (field-independent basis, Debye-Ang):
   XX=            -30.9996   YY=            -32.4359   ZZ=            -38.5825
   XY=             -0.2225   XZ=             -0.1002   YZ=             -0.5412

 Normal termination of Gaussian 16 at Fri Nov 10 19:16:02 2023.
