 Gaussian 16, Revision B.01,
 Gaussian 16:  EM64L-G16RevB.01 20-Dec-2017

 ---------------------------------
 # TD=(NStates=1) B3LYP/6-31G(d,p)
 ---------------------------------

 -------
 ABSSPCT
 -------
 Symbolic Z-matrix:
 Charge =  0 Multiplicity = 1

                         Standard orientation:
 ---------------------------------------------------------------------
 Center     Atomic      Atomic             Coordinates (Angstroms)
 Number     Number       Type             X           Y           Z
 ---------------------------------------------------------------------
      1          6           0       -0.860129   -1.093769   -0.089460
      2          6           0       -1.478428    0.216705    0.027320
      3          6           0       -0.474852    1.245950   -0.028062
      4          6           0        0.861851    1.117950    0.053708
      5          6           0        1.416973   -0.192393   -0.013019
      6          6           0        0.546309   -1.306492    0.016097
      7          1           0       -1.674835   -1.768337    0.015255
      8          1           0        0.943437   -2.316470    0.255512
      9          1           0        2.566978   -0.387296   -0.106011
     10          1           0        1.420594    1.993398   -0.118663
     11          1           0       -0.848597    2.253648    0.054439
     12          1           0       -2.477929    0.297351    0.099967
 ---------------------------------------------------------------------

 SCF Done:  E(RB3LYP) =  -232.213879003     A.U. after   13 cycles

 Excitation energies and oscillator strengths:

 Excited State   1:      Singlet-A      5.2093 eV  238.01 nm  f=0.0023  <S**2>=0.000
      20 -> 22         0.47809
      20 -> 23        -0.15636
      21 -> 22         0.23550
      21 -> 23         0.43698
 This state for optimization and/or second-order correction.
 Total Energy, E(TD-HF/TD-DFT) =  -232.022441764
 Copying the excited state density for this state as the 1-particle RhoCI density.

 The electronic state is 1-A.
 Alpha  occ. eigenvalues --  -10.20372 -10.19902 -10.19350 -10.19012 -10.18472
 Alpha  occ. eigenvalues --  -10.18376  -0.84076  -0.74191  -0.73523  -0.60111
 Alpha  occ. eigenvalues --   -0.59340  -0.51854  -0.46529  -0.43971  -0.41582
 Alpha  occ. eigenvalues --   -0.41105  -0.35791  -0.35017  -0.31367  -0.24808
 Alpha  occ. eigenvalues --   -0.23967
 Alpha virt. eigenvalues --   -0.01340   0.00142   0.09001   0.13468   0.14173
 Alpha virt. eigenvalues --    0.15177   0.16446   0.18435   0.20422   0.27211
 Alpha virt. eigenvalues --    0.28492   0.30532   0.33229   0.45311   0.48317

 Mulliken charges:
               1
     1  C   -0.093606
     2  C   -0.076445
     3  C   -0.086523
     4  C   -0.067571
     5  C   -0.102130
     6  C   -0.087231
     7  H    0.081599
     8  H    0.094361
     9  H    0.085605
    10  H    0.090879
    11  H    0.069691
    12  H    0.091371
 Sum of Mulliken charges =  -0.00000

 Dipole moment (field-independent basis, Debye):
    X=             -0.1705    Y=              0.0357    Z=              0.1268  Tot=              0.2155
 Quadrupole moment (field-independent basis, Debye-Ang):
   XX=            -30.7443   YY=            -32.4519   ZZ=            -38.5931
   XY=              0.0957   XZ=             -0.4733   YZ=             -0.5883

 Normal termination of Gaussian 16 at Fri Nov 10 18:49:45 2023.
