 Gaussian 16, Revision B.01,
 Gaussian 16:  EM64L-G16RevB.01 20-Dec-2017

 ---------------------------------
 # TD=(NStates=1) B3LYP/6-31G(d,p)
 ---------------------------------

 -------
 ABSSPCT
 -------
 Symbolic Z-matrix:
 Charge =  0 Multiplicity = 1

                         Standard orientation:
 ---------------------------------------------------------------------
 Center     Atomic      Atomic             Coordinates (Angstroms)
 Number     Number       Type             X           Y           Z
 ---------------------------------------------------------------------
      1          6           0        0.496310    1.304473    0.045851
      2          6           0        1.427215    0.185358   -0.018371
      3          6           0        0.909014   -1.049087   -0.021050
      4          6           0       -0.505974   -1.279467    0.016774
      5          6           0       -1.376829   -0.241395    0.004173
      6          6           0       -0.898081    1.059387   -0.047575
      7          1           0        0.823118    2.309084    0.034530
      8          1           0       -1.534845    1.915383    0.053061
      9          1           0       -2.496294   -0.360623   -0.021081
     10          1           0       -1.061744   -2.156057    0.029590
     11          1           0        1.528393   -1.970874    0.071497
     12          1           0        2.431443    0.387468   -0.046407
 ---------------------------------------------------------------------

 SCF Done:  E(RB3LYP) =  -232.233326919     A.U. after   13 cycles

 Excitation energies and oscillator strengths:

 Excited State   1:      Singlet-A      5.5153 eV  224.80 nm  f=0.0003  <S**2>=0.000
      20 -> 22         0.48717
      21 -> 23         0.51039
 This state for optimization and/or second-order correction.
 Total Energy, E(TD-HF/TD-DFT) =  -232.030644957
 Copying the excited state density for this state as the 1-particle RhoCI density.

 The electronic state is 1-A.
 Alpha  occ. eigenvalues --  -10.19172 -10.18992 -10.18493 -10.18437 -10.18345
 Alpha  occ. eigenvalues --  -10.18083  -0.84750  -0.75055  -0.73436  -0.60500
 Alpha  occ. eigenvalues --   -0.59521  -0.52078  -0.46314  -0.44205  -0.42173
 Alpha  occ. eigenvalues --   -0.40835  -0.36112  -0.34376  -0.32918  -0.25479
 Alpha  occ. eigenvalues --   -0.23961
 Alpha virt. eigenvalues --   -0.00480   0.00783   0.09472   0.14032   0.15141
 Alpha virt. eigenvalues --    0.16149   0.17442   0.18624   0.19812   0.28484
 Alpha virt. eigenvalues --    0.30567   0.30790   0.33116   0.46272   0.51600

 Mulliken charges:
               1
     1  C   -0.101246
     2  C   -0.069166
     3  C   -0.091370
     4  C   -0.073430
     5  C   -0.085220
     6  C   -0.080493
     7  H    0.083647
     8  H    0.081118
     9  H    0.082711
    10  H    0.083221
    11  H    0.084152
    12  H    0.086076
 Sum of Mulliken charges =  -0.00000

 Dipole moment (field-independent basis, Debye):
    X=             -0.0255    Y=              0.0722    Z=              0.0695  Tot=              0.1034
 Quadrupole moment (field-independent basis, Debye-Ang):
   XX=            -31.2133   YY=            -31.8068   ZZ=            -38.4143
   XY=              0.3285   XZ=             -0.0321   YZ=             -0.0230

 Normal termination of Gaussian 16 at Fri Nov 10 16:34:14 2023.
