 Gaussian 16, Revision B.01,
 Gaussian 16:  EM64L-G16RevB.01 20-Dec-2017

 ---------------------------------
 # TD=(NStates=1) B3LYP/6-31G(d,p)
 ---------------------------------

 -------
 ABSSPCT
 -------
 Symbolic Z-matrix:
 Charge =  0 Multiplicity = 1

                         Standard orientation:
 ---------------------------------------------------------------------
 Center     Atomic      Atomic             Coordinates (Angstroms)
 Number     Number       Type             X           Y           Z
 ---------------------------------------------------------------------
      1          6           0       -1.095585   -0.860308   -0.046653
      2          6           0        0.201980   -1.334893   -0.001189
      3          6           0        1.351134   -0.506616    0.005391
      4          6           0        1.122738    0.896486   -0.024639
      5          6           0       -0.235865    1.349087   -0.017933
      6          6           0       -1.341829    0.514310    0.046678
      7          1           0       -2.038943   -1.623758   -0.005818
      8          1           0       -2.283169    0.687540   -0.020667
      9          1           0       -0.405294    2.472521    0.099725
     10          1           0        1.946625    1.513674   -0.007388
     11          1           0        2.202940   -1.032500    0.043190
     12          1           0        0.562408   -2.365869    0.121026
 ---------------------------------------------------------------------

 SCF Done:  E(RB3LYP) =  -232.206815324     A.U. after   13 cycles

 Excitation energies and oscillator strengths:

 Excited State   1:      Singlet-A      5.3925 eV  229.92 nm  f=0.0027  <S**2>=0.000
      20 -> 22        -0.16408
      20 -> 23        -0.42697
      21 -> 22         0.51360
      21 -> 23        -0.16307
 This state for optimization and/or second-order correction.
 Total Energy, E(TD-HF/TD-DFT) =  -232.008643742
 Copying the excited state density for this state as the 1-particle RhoCI density.

 The electronic state is 1-A.
 Alpha  occ. eigenvalues --  -10.19930 -10.19840 -10.19212 -10.18555 -10.18359
 Alpha  occ. eigenvalues --  -10.17910  -0.84517  -0.75130  -0.73220  -0.60997
 Alpha  occ. eigenvalues --   -0.59840  -0.51867  -0.46821  -0.44258  -0.42445
 Alpha  occ. eigenvalues --   -0.39803  -0.36055  -0.35113  -0.32005  -0.24957
 Alpha  occ. eigenvalues --   -0.24381
 Alpha virt. eigenvalues --   -0.00528   0.00123   0.08566   0.13576   0.13865
 Alpha virt. eigenvalues --    0.15455   0.17214   0.19258   0.20716   0.28680
 Alpha virt. eigenvalues --    0.29035   0.30142   0.33246   0.46613   0.51765

 Mulliken charges:
               1
     1  C   -0.105906
     2  C   -0.077589
     3  C   -0.068230
     4  C   -0.081087
     5  C   -0.107670
     6  C   -0.034403
     7  H    0.073921
     8  H    0.077152
     9  H    0.079068
    10  H    0.086774
    11  H    0.081021
    12  H    0.076948
 Sum of Mulliken charges =  -0.00000

 Dipole moment (field-independent basis, Debye):
    X=              0.1439    Y=             -0.0509    Z=              0.1383  Tot=              0.2060
 Quadrupole moment (field-independent basis, Debye-Ang):
   XX=            -30.7643   YY=            -32.4544   ZZ=            -38.5209
   XY=             -0.3798   XZ=              0.1411   YZ=             -0.0815

 Normal termination of Gaussian 16 at Fri Nov 10 18:19:26 2023.
