 Gaussian 16, Revision B.01,
 Gaussian 16:  EM64L-G16RevB.01 20-Dec-2017

 ---------------------------------
 # TD=(NStates=1) B3LYP/6-31G(d,p)
 ---------------------------------

 -------
 ABSSPCT
 -------
 Symbolic Z-matrix:
 Charge =  0 Multiplicity = 1

                         Standard orientation:
 ---------------------------------------------------------------------
 Center     Atomic      Atomic             Coordinates (Angstroms)
 Number     Number       Type             X           Y           Z
 ---------------------------------------------------------------------
      1          6           0        0.363166    1.328133   -0.023217
      2          6           0       -0.994443    0.940712    0.053042
      3          6           0       -1.393205   -0.401541   -0.027185
      4          6           0       -0.392330   -1.326251   -0.048316
      5          6           0        1.018952   -0.986127    0.021480
      6          6           0        1.437646    0.368985   -0.030120
      7          1           0        0.420272    2.435791   -0.034591
      8          1           0        2.400996    0.933231    0.069140
      9          1           0        1.730882   -1.914567    0.158564
     10          1           0       -0.482166   -2.261099    0.021641
     11          1           0       -2.501022   -0.474715    0.086537
     12          1           0       -1.807679    1.737897    0.024602
 ---------------------------------------------------------------------

 SCF Done:  E(RB3LYP) =  -232.202480626     A.U. after   13 cycles

 Excitation energies and oscillator strengths:

 Excited State   1:      Singlet-A      5.3190 eV  233.09 nm  f=0.0031  <S**2>=0.000
      20 -> 22         0.28787
      20 -> 23        -0.34723
      21 -> 22         0.42969
      21 -> 23         0.33402
 This state for optimization and/or second-order correction.
 Total Energy, E(TD-HF/TD-DFT) =  -232.007009299
 Copying the excited state density for this state as the 1-particle RhoCI density.

 The electronic state is 1-A.
 Alpha  occ. eigenvalues --  -10.20975 -10.20536 -10.19319 -10.19178 -10.18943
 Alpha  occ. eigenvalues --  -10.17982  -0.84134  -0.74310  -0.73353  -0.60646
 Alpha  occ. eigenvalues --   -0.58961  -0.51609  -0.45743  -0.43506  -0.42322
 Alpha  occ. eigenvalues --   -0.39856  -0.35572  -0.33833  -0.32952  -0.25160
 Alpha  occ. eigenvalues --   -0.23991
 Alpha virt. eigenvalues --   -0.00485  -0.00284   0.08131   0.12084   0.13163
 Alpha virt. eigenvalues --    0.15083   0.15596   0.19161   0.19795   0.27421
 Alpha virt. eigenvalues --    0.29079   0.30384   0.32525   0.47013   0.51002

 Mulliken charges:
               1
     1  C   -0.089650
     2  C   -0.093220
     3  C   -0.065149
     4  C   -0.053949
     5  C   -0.119465
     6  C   -0.088000
     7  H    0.086067
     8  H    0.101223
     9  H    0.086915
    10  H    0.065681
    11  H    0.092410
    12  H    0.077137
 Sum of Mulliken charges =  -0.00000

 Dipole moment (field-independent basis, Debye):
    X=             -0.1157    Y=              0.0649    Z=              0.1915  Tot=              0.2330
 Quadrupole moment (field-independent basis, Debye-Ang):
   XX=            -31.8003   YY=            -31.4440   ZZ=            -38.7951
   XY=             -0.1749   XZ=              0.1463   YZ=             -0.2975

 Normal termination of Gaussian 16 at Fri Nov 10 16:24:57 2023.
