 Gaussian 16, Revision B.01,
 Gaussian 16:  EM64L-G16RevB.01 20-Dec-2017

 ---------------------------------
 # TD=(NStates=1) B3LYP/6-31G(d,p)
 ---------------------------------

 -------
 ABSSPCT
 -------
 Symbolic Z-matrix:
 Charge =  0 Multiplicity = 1

                         Standard orientation:
 ---------------------------------------------------------------------
 Center     Atomic      Atomic             Coordinates (Angstroms)
 Number     Number       Type             X           Y           Z
 ---------------------------------------------------------------------
      1          6           0       -0.897920   -1.084207   -0.021280
      2          6           0       -1.456855    0.247092    0.094327
      3          6           0       -0.496510    1.344101   -0.014147
      4          6           0        0.930246    1.053536   -0.052650
      5          6           0        1.428986   -0.222152    0.070613
      6          6           0        0.525111   -1.303419   -0.108008
      7          1           0       -1.563063   -1.863387    0.152658
      8          1           0        0.708091   -2.325550   -0.027433
      9          1           0        2.500175   -0.506856    0.253490
     10          1           0        1.667411    1.910239   -0.008960
     11          1           0       -0.943648    2.391551   -0.082439
     12          1           0       -2.567308    0.184294   -0.100449
 ---------------------------------------------------------------------

 SCF Done:  E(RB3LYP) =  -232.215175182     A.U. after   13 cycles

 Excitation energies and oscillator strengths:

 Excited State   1:      Singlet-A      5.0358 eV  246.21 nm  f=0.0013  <S**2>=0.000
      20 -> 22         0.41600
      20 -> 23        -0.26307
      21 -> 22         0.32457
      21 -> 23         0.38988
 This state for optimization and/or second-order correction.
 Total Energy, E(TD-HF/TD-DFT) =  -232.030112781
 Copying the excited state density for this state as the 1-particle RhoCI density.

 The electronic state is 1-A.
 Alpha  occ. eigenvalues --  -10.21172 -10.20239 -10.20170 -10.20042 -10.18987
 Alpha  occ. eigenvalues --  -10.18855  -0.83271  -0.73802  -0.72683  -0.60013
 Alpha  occ. eigenvalues --   -0.58739  -0.50683  -0.46323  -0.43361  -0.41598
 Alpha  occ. eigenvalues --   -0.40496  -0.34903  -0.34042  -0.33047  -0.24436
 Alpha  occ. eigenvalues --   -0.23859
 Alpha virt. eigenvalues --   -0.01482  -0.00616   0.08466   0.12688   0.13553
 Alpha virt. eigenvalues --    0.14574   0.15627   0.16909   0.20203   0.27601
 Alpha virt. eigenvalues --    0.28201   0.29435   0.30322   0.47518   0.48485

 Mulliken charges:
               1
     1  C   -0.100212
     2  C   -0.093115
     3  C   -0.105895
     4  C   -0.090311
     5  C   -0.079949
     6  C   -0.078221
     7  H    0.088152
     8  H    0.085242
     9  H    0.096580
    10  H    0.088021
    11  H    0.093067
    12  H    0.096640
 Sum of Mulliken charges =  -0.00000

 Dipole moment (field-independent basis, Debye):
    X=              0.0105    Y=             -0.2096    Z=              0.1137  Tot=              0.2387
 Quadrupole moment (field-independent basis, Debye-Ang):
   XX=            -31.2545   YY=            -31.8421   ZZ=            -38.9553
   XY=              0.3115   XZ=              0.6196   YZ=             -0.5063

 Normal termination of Gaussian 16 at Fri Nov 10 16:25:52 2023.
