 Gaussian 16, Revision B.01,
 Gaussian 16:  EM64L-G16RevB.01 20-Dec-2017

 ---------------------------------
 # TD=(NStates=1) B3LYP/6-31G(d,p)
 ---------------------------------

 -------
 ABSSPCT
 -------
 Symbolic Z-matrix:
 Charge =  0 Multiplicity = 1

                         Standard orientation:
 ---------------------------------------------------------------------
 Center     Atomic      Atomic             Coordinates (Angstroms)
 Number     Number       Type             X           Y           Z
 ---------------------------------------------------------------------
      1          6           0       -0.504750   -1.270133    0.010958
      2          6           0        0.869217   -1.096481    0.012531
      3          6           0        1.408736    0.146076   -0.002134
      4          6           0        0.519117    1.294101   -0.017175
      5          6           0       -0.870151    1.123572    0.046164
      6          6           0       -1.448805   -0.234020   -0.042096
      7          1           0       -1.021576   -2.241804   -0.050812
      8          1           0       -2.520553   -0.315508   -0.013007
      9          1           0       -1.559033    2.013157    0.043628
     10          1           0        1.143438    2.272128   -0.033048
     11          1           0        2.485576    0.412545   -0.082648
     12          1           0        1.631961   -1.919214    0.086393
 ---------------------------------------------------------------------

 SCF Done:  E(RB3LYP) =  -232.231571095     A.U. after   13 cycles

 Excitation energies and oscillator strengths:

 Excited State   1:      Singlet-A      5.3919 eV  229.95 nm  f=0.0016  <S**2>=0.000
      20 -> 22         0.42999
      20 -> 23        -0.25082
      21 -> 22        -0.30918
      21 -> 23        -0.39520
 This state for optimization and/or second-order correction.
 Total Energy, E(TD-HF/TD-DFT) =  -232.033423049
 Copying the excited state density for this state as the 1-particle RhoCI density.

 The electronic state is 1-A.
 Alpha  occ. eigenvalues --  -10.20110 -10.19890 -10.19842 -10.19331 -10.19170
 Alpha  occ. eigenvalues --  -10.19097  -0.84193  -0.73932  -0.73277  -0.59627
 Alpha  occ. eigenvalues --   -0.59198  -0.50845  -0.45651  -0.44412  -0.41626
 Alpha  occ. eigenvalues --   -0.39828  -0.35800  -0.35053  -0.31671  -0.24851
 Alpha  occ. eigenvalues --   -0.24426
 Alpha virt. eigenvalues --   -0.00689   0.00271   0.07841   0.13058   0.13599
 Alpha virt. eigenvalues --    0.15307   0.16265   0.17575   0.18488   0.26728
 Alpha virt. eigenvalues --    0.29265   0.31077   0.32687   0.46575   0.50808

 Mulliken charges:
               1
     1  C   -0.096581
     2  C   -0.069152
     3  C   -0.088040
     4  C   -0.078715
     5  C   -0.107017
     6  C   -0.086431
     7  H    0.083668
     8  H    0.098647
     9  H    0.084770
    10  H    0.081992
    11  H    0.089996
    12  H    0.086864
 Sum of Mulliken charges =  -0.00000

 Dipole moment (field-independent basis, Debye):
    X=              0.0004    Y=              0.0062    Z=             -0.0258  Tot=              0.0265
 Quadrupole moment (field-independent basis, Debye-Ang):
   XX=            -30.4424   YY=            -32.7194   ZZ=            -38.8821
   XY=              0.3420   XZ=             -0.0585   YZ=             -0.0573

 Normal termination of Gaussian 16 at Fri Nov 10 19:16:46 2023.
