 Gaussian 16, Revision B.01,
 Gaussian 16:  EM64L-G16RevB.01 20-Dec-2017

 ---------------------------------
 # TD=(NStates=1) B3LYP/6-31G(d,p)
 ---------------------------------

 -------
 ABSSPCT
 -------
 Symbolic Z-matrix:
 Charge =  0 Multiplicity = 1

                         Standard orientation:
 ---------------------------------------------------------------------
 Center     Atomic      Atomic             Coordinates (Angstroms)
 Number     Number       Type             X           Y           Z
 ---------------------------------------------------------------------
      1          6           0        1.461786   -0.127931   -0.008939
      2          6           0        0.793431    1.128669    0.031034
      3          6           0       -0.569005    1.252108   -0.086138
      4          6           0       -1.422570    0.154074   -0.002105
      5          6           0       -0.829397   -1.122259    0.122156
      6          6           0        0.566913   -1.245013   -0.068208
      7          1           0        2.514522   -0.364791   -0.009629
      8          1           0        0.900598   -2.308639   -0.180133
      9          1           0       -1.319283   -1.879434    0.056799
     10          1           0       -2.554859    0.076430   -0.019666
     11          1           0       -1.108406    2.215576   -0.118868
     12          1           0        1.560474    2.022970    0.344701
 ---------------------------------------------------------------------

 SCF Done:  E(RB3LYP) =  -232.191773490     A.U. after   12 cycles

 Excitation energies and oscillator strengths:

 Excited State   1:      Singlet-A      5.2878 eV  234.47 nm  f=0.0007  <S**2>=0.000
      20 -> 22         0.43120
      20 -> 23        -0.26196
      21 -> 22         0.28788
      21 -> 23         0.40262
 This state for optimization and/or second-order correction.
 Total Energy, E(TD-HF/TD-DFT) =  -231.997450489
 Copying the excited state density for this state as the 1-particle RhoCI density.

 The electronic state is 1-A.
 Alpha  occ. eigenvalues --  -10.20643 -10.19626 -10.19618 -10.19278 -10.19257
 Alpha  occ. eigenvalues --  -10.16845  -0.84467  -0.74377  -0.73681  -0.60272
 Alpha  occ. eigenvalues --   -0.59380  -0.51962  -0.45838  -0.44226  -0.41914
 Alpha  occ. eigenvalues --   -0.40700  -0.35964  -0.34262  -0.32152  -0.24488
 Alpha  occ. eigenvalues --   -0.24443
 Alpha virt. eigenvalues --   -0.00712  -0.00107   0.07985   0.13301   0.13581
 Alpha virt. eigenvalues --    0.15084   0.15795   0.17278   0.21729   0.28692
 Alpha virt. eigenvalues --    0.29084   0.31083   0.32074   0.47248   0.51516

 Mulliken charges:
               1
     1  C   -0.083000
     2  C   -0.095353
     3  C   -0.085452
     4  C   -0.095202
     5  C   -0.026768
     6  C   -0.102850
     7  H    0.099294
     8  H    0.076177
     9  H    0.052729
    10  H    0.092471
    11  H    0.088574
    12  H    0.079380
 Sum of Mulliken charges =  -0.00000

 Dipole moment (field-independent basis, Debye):
    X=             -0.1070    Y=             -0.2623    Z=              0.0322  Tot=              0.2851
 Quadrupole moment (field-independent basis, Debye-Ang):
   XX=            -30.9366   YY=            -32.3866   ZZ=            -38.5631
   XY=              0.0803   XZ=              0.3644   YZ=              0.5232

 Normal termination of Gaussian 16 at Fri Nov 10 16:13:57 2023.
