 Gaussian 16, Revision B.01,
 Gaussian 16:  EM64L-G16RevB.01 20-Dec-2017

 ---------------------------------
 # TD=(NStates=1) B3LYP/6-31G(d,p)
 ---------------------------------

 -------
 ABSSPCT
 -------
 Symbolic Z-matrix:
 Charge =  0 Multiplicity = 1

                         Standard orientation:
 ---------------------------------------------------------------------
 Center     Atomic      Atomic             Coordinates (Angstroms)
 Number     Number       Type             X           Y           Z
 ---------------------------------------------------------------------
      1          6           0       -1.076883    0.925522   -0.016676
      2          6           0        0.358613    1.318232    0.105260
      3          6           0        1.367462    0.423402   -0.057372
      4          6           0        1.042191   -0.976886   -0.035639
      5          6           0       -0.293529   -1.345862    0.023179
      6          6           0       -1.378148   -0.390696   -0.057830
      7          1           0       -1.926854    1.719772   -0.079297
      8          1           0       -2.327650   -0.691193    0.044587
      9          1           0       -0.547594   -2.369895    0.181339
     10          1           0        1.697067   -1.770921    0.136167
     11          1           0        2.396461    0.879641   -0.127503
     12          1           0        0.590336    2.510328    0.079180
 ---------------------------------------------------------------------

 SCF Done:  E(RB3LYP) =  -232.217806676     A.U. after   12 cycles

 Excitation energies and oscillator strengths:

 Excited State   1:      Singlet-A      5.3824 eV  230.35 nm  f=0.0006  <S**2>=0.000
      20 -> 22        -0.47551
      21 -> 23         0.50684
 This state for optimization and/or second-order correction.
 Total Energy, E(TD-HF/TD-DFT) =  -232.020006873
 Copying the excited state density for this state as the 1-particle RhoCI density.

 The electronic state is 1-A.
 Alpha  occ. eigenvalues --  -10.20366 -10.20069 -10.19772 -10.18971 -10.18841
 Alpha  occ. eigenvalues --  -10.18027  -0.84212  -0.74748  -0.73129  -0.59798
 Alpha  occ. eigenvalues --   -0.58895  -0.51439  -0.45860  -0.43562  -0.42360
 Alpha  occ. eigenvalues --   -0.40311  -0.35471  -0.33968  -0.33336  -0.25150
 Alpha  occ. eigenvalues --   -0.24087
 Alpha virt. eigenvalues --   -0.00570   0.00073   0.07821   0.13499   0.13892
 Alpha virt. eigenvalues --    0.14687   0.16333   0.17848   0.19828   0.27156
 Alpha virt. eigenvalues --    0.29616   0.30944   0.32324   0.46668   0.49224

 Mulliken charges:
               1
     1  C   -0.097824
     2  C   -0.086563
     3  C   -0.085832
     4  C   -0.083835
     5  C   -0.095717
     6  C   -0.056187
     7  H    0.086650
     8  H    0.081508
     9  H    0.083180
    10  H    0.089435
    11  H    0.093010
    12  H    0.072175
 Sum of Mulliken charges =  -0.00000

 Dipole moment (field-independent basis, Debye):
    X=             -0.1071    Y=             -0.1340    Z=              0.1364  Tot=              0.2192
 Quadrupole moment (field-independent basis, Debye-Ang):
   XX=            -31.4799   YY=            -31.7550   ZZ=            -38.6842
   XY=              0.0762   XZ=             -0.0982   YZ=             -0.6887

 Normal termination of Gaussian 16 at Fri Nov 10 18:10:09 2023.
