 Gaussian 16, Revision B.01,
 Gaussian 16:  EM64L-G16RevB.01 20-Dec-2017

 ---------------------------------
 # TD=(NStates=1) B3LYP/6-31G(d,p)
 ---------------------------------

 -------
 ABSSPCT
 -------
 Symbolic Z-matrix:
 Charge =  0 Multiplicity = 1

                         Standard orientation:
 ---------------------------------------------------------------------
 Center     Atomic      Atomic             Coordinates (Angstroms)
 Number     Number       Type             X           Y           Z
 ---------------------------------------------------------------------
      1          6           0       -0.010194    1.413429    0.054544
      2          6           0        1.216554    0.659762    0.019777
      3          6           0        1.214567   -0.755084   -0.021142
      4          6           0       -0.033895   -1.391589    0.008351
      5          6           0       -1.212527   -0.610543   -0.035655
      6          6           0       -1.157148    0.697105   -0.024512
      7          1           0        0.044191    2.562012    0.087741
      8          1           0       -1.971847    1.168425   -0.087750
      9          1           0       -2.383672   -1.223333    0.005121
     10          1           0       -0.267934   -2.374878    0.219488
     11          1           0        2.238249   -1.395259   -0.033330
     12          1           0        2.236871    1.184551   -0.199443
 ---------------------------------------------------------------------

 SCF Done:  E(RB3LYP) =  -232.179176826     A.U. after   13 cycles

 Excitation energies and oscillator strengths:

 Excited State   1:      Singlet-A      5.5083 eV  225.09 nm  f=0.0012  <S**2>=0.000
      20 -> 22         0.49988
      21 -> 22         0.14767
      21 -> 23        -0.46861
 This state for optimization and/or second-order correction.
 Total Energy, E(TD-HF/TD-DFT) =  -231.976751226
 Copying the excited state density for this state as the 1-particle RhoCI density.

 The electronic state is 1-A.
 Alpha  occ. eigenvalues --  -10.20654 -10.20282 -10.19904 -10.19852 -10.18675
 Alpha  occ. eigenvalues --  -10.16360  -0.85626  -0.75251  -0.73322  -0.60673
 Alpha  occ. eigenvalues --   -0.58757  -0.51902  -0.45271  -0.43602  -0.42175
 Alpha  occ. eigenvalues --   -0.39508  -0.36737  -0.33959  -0.32528  -0.25605
 Alpha  occ. eigenvalues --   -0.24295
 Alpha virt. eigenvalues --   -0.00887   0.00789   0.05876   0.10489   0.13118
 Alpha virt. eigenvalues --    0.15556   0.16313   0.17951   0.20242   0.27939
 Alpha virt. eigenvalues --    0.30111   0.31889   0.34301   0.46135   0.51937

 Mulliken charges:
               1
     1  C   -0.088914
     2  C   -0.109344
     3  C   -0.084803
     4  C   -0.082376
     5  C   -0.083031
     6  C   -0.023377
     7  H    0.092732
     8  H    0.064443
     9  H    0.056522
    10  H    0.088300
    11  H    0.086891
    12  H    0.082957
 Sum of Mulliken charges =  -0.00000

 Dipole moment (field-independent basis, Debye):
    X=             -0.0681    Y=              0.1377    Z=              0.0050  Tot=              0.1537
 Quadrupole moment (field-independent basis, Debye-Ang):
   XX=            -32.0641   YY=            -31.7265   ZZ=            -38.5879
   XY=             -0.1324   XZ=             -0.3550   YZ=             -0.5261

 Normal termination of Gaussian 16 at Fri Nov 10 16:20:25 2023.
