 Gaussian 16, Revision B.01,
 Gaussian 16:  EM64L-G16RevB.01 20-Dec-2017

 ---------------------------------
 # TD=(NStates=1) B3LYP/6-31G(d,p)
 ---------------------------------

 -------
 ABSSPCT
 -------
 Symbolic Z-matrix:
 Charge =  0 Multiplicity = 1

                         Standard orientation:
 ---------------------------------------------------------------------
 Center     Atomic      Atomic             Coordinates (Angstroms)
 Number     Number       Type             X           Y           Z
 ---------------------------------------------------------------------
      1          6           0        1.370486   -0.418825    0.047724
      2          6           0        0.997066    0.942417   -0.048713
      3          6           0       -0.326790    1.345682    0.001202
      4          6           0       -1.422460    0.370407   -0.006453
      5          6           0       -0.974943   -0.962783    0.001021
      6          6           0        0.365870   -1.271129   -0.023494
      7          1           0        2.352901   -0.669014    0.078093
      8          1           0        0.495361   -2.367863    0.022411
      9          1           0       -1.622105   -1.690571    0.032768
     10          1           0       -2.560224    0.486642   -0.098996
     11          1           0       -0.519906    2.393857    0.318975
     12          1           0        1.798595    1.812331   -0.180968
 ---------------------------------------------------------------------

 SCF Done:  E(RB3LYP) =  -232.208002563     A.U. after   14 cycles

 Excitation energies and oscillator strengths:

 Excited State   1:      Singlet-A      5.3511 eV  231.70 nm  f=0.0041  <S**2>=0.000
      20 -> 23        -0.43028
      21 -> 22         0.55859
 This state for optimization and/or second-order correction.
 Total Energy, E(TD-HF/TD-DFT) =  -232.011354019
 Copying the excited state density for this state as the 1-particle RhoCI density.

 The electronic state is 1-A.
 Alpha  occ. eigenvalues --  -10.20218 -10.19834 -10.19618 -10.17951 -10.17806
 Alpha  occ. eigenvalues --  -10.17181  -0.85199  -0.74559  -0.73964  -0.60711
 Alpha  occ. eigenvalues --   -0.58921  -0.52315  -0.45777  -0.44369  -0.42009
 Alpha  occ. eigenvalues --   -0.40440  -0.36364  -0.35015  -0.32337  -0.24721
 Alpha  occ. eigenvalues --   -0.24266
 Alpha virt. eigenvalues --   -0.00599   0.00408   0.08307   0.13318   0.13922
 Alpha virt. eigenvalues --    0.15744   0.16841   0.18418   0.21128   0.28953
 Alpha virt. eigenvalues --    0.29132   0.31230   0.33888   0.46749   0.51276

 Mulliken charges:
               1
     1  C   -0.055684
     2  C   -0.098091
     3  C   -0.105618
     4  C   -0.100438
     5  C   -0.052999
     6  C   -0.075593
     7  H    0.085130
     8  H    0.070577
     9  H    0.069094
    10  H    0.094645
    11  H    0.090098
    12  H    0.078879
 Sum of Mulliken charges =  -0.00000

 Dipole moment (field-independent basis, Debye):
    X=             -0.0277    Y=             -0.1947    Z=              0.1190  Tot=              0.2299
 Quadrupole moment (field-independent basis, Debye-Ang):
   XX=            -31.1043   YY=            -32.3385   ZZ=            -38.3385
   XY=              0.4915   XZ=             -0.0387   YZ=              0.2245

 Normal termination of Gaussian 16 at Fri Nov 10 18:47:17 2023.
