 Gaussian 16, Revision B.01,
 Gaussian 16:  EM64L-G16RevB.01 20-Dec-2017

 ---------------------------------
 # TD=(NStates=1) B3LYP/6-31G(d,p)
 ---------------------------------

 -------
 ABSSPCT
 -------
 Symbolic Z-matrix:
 Charge =  0 Multiplicity = 1

                         Standard orientation:
 ---------------------------------------------------------------------
 Center     Atomic      Atomic             Coordinates (Angstroms)
 Number     Number       Type             X           Y           Z
 ---------------------------------------------------------------------
      1          6           0       -0.856726    1.139639    0.050900
      2          6           0       -1.436321   -0.195154   -0.041506
      3          6           0       -0.455854   -1.342774   -0.032615
      4          6           0        0.863076   -1.031297   -0.047387
      5          6           0        1.386219    0.225371   -0.009987
      6          6           0        0.478929    1.243136   -0.115174
      7          1           0       -1.586720    1.920948    0.341283
      8          1           0        1.038902    2.238677    0.054118
      9          1           0        2.560090    0.254830    0.237069
     10          1           0        1.599967   -1.884408    0.397686
     11          1           0       -0.926264   -2.199568    0.052789
     12          1           0       -2.561906   -0.564011    0.091669
 ---------------------------------------------------------------------

 SCF Done:  E(RB3LYP) =  -232.177125642     A.U. after   14 cycles

 Excitation energies and oscillator strengths:

 Excited State   1:      Singlet-A      5.3268 eV  232.75 nm  f=0.0004  <S**2>=0.000
      20 -> 22         0.50231
      21 -> 23        -0.48878
 This state for optimization and/or second-order correction.
 Total Energy, E(TD-HF/TD-DFT) =  -231.981368043
 Copying the excited state density for this state as the 1-particle RhoCI density.

 The electronic state is 1-A.
 Alpha  occ. eigenvalues --  -10.21250 -10.20155 -10.19696 -10.19359 -10.19046
 Alpha  occ. eigenvalues --  -10.18555  -0.85242  -0.74712  -0.73388  -0.60003
 Alpha  occ. eigenvalues --   -0.58942  -0.51386  -0.45864  -0.44171  -0.40991
 Alpha  occ. eigenvalues --   -0.40101  -0.36692  -0.34299  -0.30424  -0.25531
 Alpha  occ. eigenvalues --   -0.24058
 Alpha virt. eigenvalues --   -0.01449   0.00266   0.06256   0.11047   0.11857
 Alpha virt. eigenvalues --    0.14464   0.16323   0.17793   0.19843   0.25758
 Alpha virt. eigenvalues --    0.29284   0.31012   0.36034   0.45463   0.49034

 Mulliken charges:
               1
     1  C   -0.078446
     2  C   -0.125301
     3  C   -0.054467
     4  C   -0.074537
     5  C   -0.072322
     6  C   -0.096646
     7  H    0.101463
     8  H    0.075008
     9  H    0.098134
    10  H    0.056903
    11  H    0.082308
    12  H    0.087903
 Sum of Mulliken charges =  -0.00000

 Dipole moment (field-independent basis, Debye):
    X=             -0.1764    Y=             -0.0439    Z=              0.6573  Tot=              0.6820
 Quadrupole moment (field-independent basis, Debye-Ang):
   XX=            -31.2970   YY=            -33.0614   ZZ=            -38.5308
   XY=              0.6889   XZ=              0.2186   YZ=              0.0430

 Normal termination of Gaussian 16 at Fri Nov 10 16:43:12 2023.
