 Gaussian 16, Revision B.01,
 Gaussian 16:  EM64L-G16RevB.01 20-Dec-2017

 ---------------------------------
 # TD=(NStates=1) B3LYP/6-31G(d,p)
 ---------------------------------

 -------
 ABSSPCT
 -------
 Symbolic Z-matrix:
 Charge =  0 Multiplicity = 1

                         Standard orientation:
 ---------------------------------------------------------------------
 Center     Atomic      Atomic             Coordinates (Angstroms)
 Number     Number       Type             X           Y           Z
 ---------------------------------------------------------------------
      1          6           0        0.600988    1.237873    0.085292
      2          6           0       -0.814901    1.162829   -0.020736
      3          6           0       -1.370241   -0.175528   -0.077241
      4          6           0       -0.520261   -1.233234    0.043470
      5          6           0        0.791200   -1.093315   -0.078312
      6          6           0        1.344485    0.105710   -0.004961
      7          1           0        1.117638    2.066919    0.066274
      8          1           0        2.450397    0.258308   -0.011443
      9          1           0        1.511605   -1.965311   -0.046180
     10          1           0       -1.224575   -2.131989    0.335677
     11          1           0       -2.571613   -0.229080    0.095331
     12          1           0       -1.471067    1.975134   -0.124731
 ---------------------------------------------------------------------

 SCF Done:  E(RB3LYP) =  -232.196459158     A.U. after   13 cycles

 Excitation energies and oscillator strengths:

 Excited State   1:      Singlet-A      5.5723 eV  222.50 nm  f=0.0013  <S**2>=0.000
      20 -> 22         0.53482
      21 -> 23        -0.46122
 This state for optimization and/or second-order correction.
 Total Energy, E(TD-HF/TD-DFT) =  -231.991682513
 Copying the excited state density for this state as the 1-particle RhoCI density.

 The electronic state is 1-A.
 Alpha  occ. eigenvalues --  -10.19676 -10.19141 -10.18843 -10.18163 -10.17919
 Alpha  occ. eigenvalues --  -10.17405  -0.86412  -0.75111  -0.74222  -0.61231
 Alpha  occ. eigenvalues --   -0.58842  -0.52167  -0.45409  -0.44836  -0.41676
 Alpha  occ. eigenvalues --   -0.40840  -0.37097  -0.33846  -0.32226  -0.25072
 Alpha  occ. eigenvalues --   -0.24775
 Alpha virt. eigenvalues --   -0.00294   0.00798   0.07091   0.12431   0.14036
 Alpha virt. eigenvalues --    0.16108   0.17522   0.18383   0.20495   0.28587
 Alpha virt. eigenvalues --    0.31092   0.33094   0.34200   0.46150   0.52137

 Mulliken charges:
               1
     1  C   -0.053114
     2  C   -0.093163
     3  C   -0.102909
     4  C   -0.068186
     5  C   -0.083308
     6  C   -0.079671
     7  H    0.068798
     8  H    0.082310
     9  H    0.080491
    10  H    0.085233
    11  H    0.075873
    12  H    0.087646
 Sum of Mulliken charges =  -0.00000

 Dipole moment (field-independent basis, Debye):
    X=              0.0893    Y=              0.2105    Z=              0.1787  Tot=              0.2902
 Quadrupole moment (field-independent basis, Debye-Ang):
   XX=            -31.2124   YY=            -32.7098   ZZ=            -38.2126
   XY=              0.0774   XZ=             -0.3994   YZ=             -0.5648

 Normal termination of Gaussian 16 at Fri Nov 10 16:06:11 2023.
