 Gaussian 16, Revision B.01,
 Gaussian 16:  EM64L-G16RevB.01 20-Dec-2017

 ---------------------------------
 # TD=(NStates=1) B3LYP/6-31G(d,p)
 ---------------------------------

 -------
 ABSSPCT
 -------
 Symbolic Z-matrix:
 Charge =  0 Multiplicity = 1

                         Standard orientation:
 ---------------------------------------------------------------------
 Center     Atomic      Atomic             Coordinates (Angstroms)
 Number     Number       Type             X           Y           Z
 ---------------------------------------------------------------------
      1          6           0        0.729694    1.150695   -0.031728
      2          6           0       -0.623520    1.270681    0.009574
      3          6           0       -1.377508    0.010215    0.020733
      4          6           0       -0.792855   -1.147579    0.004590
      5          6           0        0.667809   -1.255944   -0.068824
      6          6           0        1.413202   -0.050978    0.051894
      7          1           0        1.367597    2.064256   -0.074585
      8          1           0        2.363535    0.015857    0.165152
      9          1           0        1.344025   -2.162253   -0.040665
     10          1           0       -1.376418   -2.087241    0.085852
     11          1           0       -2.526194    0.066992   -0.016290
     12          1           0       -1.273475    2.239851   -0.036905
 ---------------------------------------------------------------------

 SCF Done:  E(RB3LYP) =  -232.210215568     A.U. after   13 cycles

 Excitation energies and oscillator strengths:

 Excited State   1:      Singlet-A      5.4989 eV  225.47 nm  f=0.0016  <S**2>=0.000
      20 -> 22         0.54287
      21 -> 23         0.45211
 This state for optimization and/or second-order correction.
 Total Energy, E(TD-HF/TD-DFT) =  -232.008133066
 Copying the excited state density for this state as the 1-particle RhoCI density.

 The electronic state is 1-A.
 Alpha  occ. eigenvalues --  -10.20210 -10.19871 -10.19035 -10.18921 -10.18561
 Alpha  occ. eigenvalues --  -10.17657  -0.84814  -0.75430  -0.72880  -0.60708
 Alpha  occ. eigenvalues --   -0.58596  -0.51429  -0.45821  -0.43991  -0.41988
 Alpha  occ. eigenvalues --   -0.40475  -0.36002  -0.34890  -0.32123  -0.25591
 Alpha  occ. eigenvalues --   -0.23854
 Alpha virt. eigenvalues --   -0.01217   0.01522   0.07841   0.13178   0.13968
 Alpha virt. eigenvalues --    0.15436   0.16358   0.17502   0.20285   0.27426
 Alpha virt. eigenvalues --    0.29928   0.30582   0.34565   0.45789   0.51607

 Mulliken charges:
               1
     1  C   -0.090665
     2  C   -0.086211
     3  C   -0.084749
     4  C   -0.075995
     5  C   -0.114681
     6  C   -0.042003
     7  H    0.075678
     8  H    0.071099
     9  H    0.089857
    10  H    0.087285
    11  H    0.080665
    12  H    0.089720
 Sum of Mulliken charges =  -0.00000

 Dipole moment (field-independent basis, Debye):
    X=              0.1213    Y=              0.0035    Z=              0.0637  Tot=              0.1370
 Quadrupole moment (field-independent basis, Debye-Ang):
   XX=            -31.0306   YY=            -32.2246   ZZ=            -38.5764
   XY=             -0.2575   XZ=              0.2303   YZ=             -0.2552

 Normal termination of Gaussian 16 at Fri Nov 10 18:30:33 2023.
