 Gaussian 16, Revision B.01,
 Gaussian 16:  EM64L-G16RevB.01 20-Dec-2017

 ---------------------------------
 # TD=(NStates=1) B3LYP/6-31G(d,p)
 ---------------------------------

 -------
 ABSSPCT
 -------
 Symbolic Z-matrix:
 Charge =  0 Multiplicity = 1

                         Standard orientation:
 ---------------------------------------------------------------------
 Center     Atomic      Atomic             Coordinates (Angstroms)
 Number     Number       Type             X           Y           Z
 ---------------------------------------------------------------------
      1          6           0        0.216426   -1.352523   -0.095602
      2          6           0       -1.118213   -0.892155    0.031799
      3          6           0       -1.251744    0.491437    0.053360
      4          6           0       -0.232773    1.382782   -0.087349
      5          6           0        1.113231    0.900068    0.054238
      6          6           0        1.296654   -0.527394   -0.054451
      7          1           0        0.447587   -2.321557    0.113026
      8          1           0        2.206454   -1.023735    0.253881
      9          1           0        1.950950    1.463261    0.231482
     10          1           0       -0.480489    2.440890   -0.237786
     11          1           0       -2.183744    0.900638    0.250903
     12          1           0       -2.082257   -1.472784   -0.023475
 ---------------------------------------------------------------------

 SCF Done:  E(RB3LYP) =  -232.218938026     A.U. after   13 cycles

 Excitation energies and oscillator strengths:

 Excited State   1:      Singlet-A      5.2442 eV  236.42 nm  f=0.0003  <S**2>=0.000
      20 -> 22         0.51371
      21 -> 23         0.48461
 This state for optimization and/or second-order correction.
 Total Energy, E(TD-HF/TD-DFT) =  -232.026216649
 Copying the excited state density for this state as the 1-particle RhoCI density.

 The electronic state is 1-A.
 Alpha  occ. eigenvalues --  -10.19263 -10.19203 -10.19098 -10.18375 -10.17747
 Alpha  occ. eigenvalues --  -10.17714  -0.84710  -0.75010  -0.73388  -0.61255
 Alpha  occ. eigenvalues --   -0.58759  -0.52152  -0.46586  -0.43552  -0.41914
 Alpha  occ. eigenvalues --   -0.41489  -0.36242  -0.34700  -0.32893  -0.24889
 Alpha  occ. eigenvalues --   -0.23660
 Alpha virt. eigenvalues --   -0.01220   0.00504   0.09577   0.13755   0.14775
 Alpha virt. eigenvalues --    0.15226   0.17555   0.19597   0.20803   0.29165
 Alpha virt. eigenvalues --    0.30208   0.30631   0.32916   0.46745   0.50893

 Mulliken charges:
               1
     1  C   -0.087292
     2  C   -0.084923
     3  C   -0.073056
     4  C   -0.082125
     5  C   -0.094281
     6  C   -0.091064
     7  H    0.080295
     8  H    0.086055
     9  H    0.087213
    10  H    0.087409
    11  H    0.079897
    12  H    0.091871
 Sum of Mulliken charges =  -0.00000

 Dipole moment (field-independent basis, Debye):
    X=             -0.0975    Y=              0.1145    Z=              0.3744  Tot=              0.4035
 Quadrupole moment (field-independent basis, Debye-Ang):
   XX=            -31.4337   YY=            -31.9284   ZZ=            -38.1746
   XY=             -0.1896   XZ=              0.6564   YZ=             -0.4172

 Normal termination of Gaussian 16 at Fri Nov 10 16:41:16 2023.
