 Gaussian 16, Revision B.01,
 Gaussian 16:  EM64L-G16RevB.01 20-Dec-2017

 ---------------------------------
 # TD=(NStates=1) B3LYP/6-31G(d,p)
 ---------------------------------

 -------
 ABSSPCT
 -------
 Symbolic Z-matrix:
 Charge =  0 Multiplicity = 1

                         Standard orientation:
 ---------------------------------------------------------------------
 Center     Atomic      Atomic             Coordinates (Angstroms)
 Number     Number       Type             X           Y           Z
 ---------------------------------------------------------------------
      1          6           0       -0.753417   -1.139800   -0.083679
      2          6           0       -1.457583    0.029170    0.032527
      3          6           0       -0.600762    1.165523   -0.048412
      4          6           0        0.732002    1.152401   -0.021521
      5          6           0        1.413930   -0.065081    0.021609
      6          6           0        0.663802   -1.227219   -0.007830
      7          1           0       -1.262796   -2.021937    0.095525
      8          1           0        1.284711   -2.170384    0.155656
      9          1           0        2.414173    0.058366   -0.000415
     10          1           0        1.237812    2.233837    0.166619
     11          1           0       -1.089672    2.165780   -0.018925
     12          1           0       -2.572068    0.244381    0.245382
 ---------------------------------------------------------------------

 SCF Done:  E(RB3LYP) =  -232.211774707     A.U. after   13 cycles

 Excitation energies and oscillator strengths:

 Excited State   1:      Singlet-A      5.5179 eV  224.69 nm  f=0.0030  <S**2>=0.000
      20 -> 22         0.34933
      20 -> 23         0.31258
      21 -> 22         0.40644
      21 -> 23        -0.33846
 This state for optimization and/or second-order correction.
 Total Energy, E(TD-HF/TD-DFT) =  -232.008994670
 Copying the excited state density for this state as the 1-particle RhoCI density.

 The electronic state is 1-A.
 Alpha  occ. eigenvalues --  -10.19873 -10.19734 -10.18844 -10.18650 -10.18118
 Alpha  occ. eigenvalues --  -10.17972  -0.85380  -0.74845  -0.73824  -0.60457
 Alpha  occ. eigenvalues --   -0.59177  -0.51780  -0.45290  -0.44205  -0.41831
 Alpha  occ. eigenvalues --   -0.40188  -0.36473  -0.34770  -0.31904  -0.25202
 Alpha  occ. eigenvalues --   -0.24505
 Alpha virt. eigenvalues --   -0.00362   0.00589   0.07197   0.12387   0.13567
 Alpha virt. eigenvalues --    0.15687   0.17801   0.18417   0.19519   0.28896
 Alpha virt. eigenvalues --    0.30036   0.31504   0.34348   0.46033   0.50021

 Mulliken charges:
               1
     1  C   -0.107438
     2  C   -0.071042
     3  C   -0.084992
     4  C   -0.074238
     5  C   -0.071573
     6  C   -0.092456
     7  H    0.081734
     8  H    0.090784
     9  H    0.083416
    10  H    0.076100
    11  H    0.068322
    12  H    0.101383
 Sum of Mulliken charges =  -0.00000

 Dipole moment (field-independent basis, Debye):
    X=             -0.0213    Y=              0.0532    Z=              0.3926  Tot=              0.3967
 Quadrupole moment (field-independent basis, Debye-Ang):
   XX=            -31.2220   YY=            -32.4434   ZZ=            -38.4012
   XY=             -0.3018   XZ=             -0.3112   YZ=             -0.1143

 Normal termination of Gaussian 16 at Fri Nov 10 16:32:26 2023.
