 Gaussian 16, Revision B.01,
 Gaussian 16:  EM64L-G16RevB.01 20-Dec-2017

 ---------------------------------
 # TD=(NStates=1) B3LYP/6-31G(d,p)
 ---------------------------------

 -------
 ABSSPCT
 -------
 Symbolic Z-matrix:
 Charge =  0 Multiplicity = 1

                         Standard orientation:
 ---------------------------------------------------------------------
 Center     Atomic      Atomic             Coordinates (Angstroms)
 Number     Number       Type             X           Y           Z
 ---------------------------------------------------------------------
      1          6           0       -0.527522    1.299945   -0.005563
      2          6           0       -1.457083    0.259973    0.004493
      3          6           0       -0.923503   -1.011748    0.047454
      4          6           0        0.486010   -1.358407   -0.088663
      5          6           0        1.431684   -0.290608    0.024889
      6          6           0        0.958995    1.066263    0.013562
      7          1           0       -0.669318    2.370322   -0.030985
      8          1           0        1.764616    1.885276   -0.043894
      9          1           0        2.430601   -0.343222    0.149701
     10          1           0        0.850627   -2.312917   -0.107933
     11          1           0       -1.734302   -1.738368    0.241296
     12          1           0       -2.453711    0.346404   -0.185221
 ---------------------------------------------------------------------

 SCF Done:  E(RB3LYP) =  -232.206861876     A.U. after   13 cycles

 Excitation energies and oscillator strengths:

 Excited State   1:      Singlet-A      5.0394 eV  246.03 nm  f=0.0024  <S**2>=0.000
      20 -> 22        -0.45554
      20 -> 23        -0.11916
      21 -> 22        -0.19714
      21 -> 23         0.48890
 This state for optimization and/or second-order correction.
 Total Energy, E(TD-HF/TD-DFT) =  -232.021665771
 Copying the excited state density for this state as the 1-particle RhoCI density.

 The electronic state is 1-A.
 Alpha  occ. eigenvalues --  -10.20214 -10.19843 -10.19569 -10.19533 -10.18836
 Alpha  occ. eigenvalues --  -10.18525  -0.83303  -0.74884  -0.72023  -0.61063
 Alpha  occ. eigenvalues --   -0.58705  -0.51539  -0.47441  -0.44180  -0.42402
 Alpha  occ. eigenvalues --   -0.39702  -0.35408  -0.34134  -0.32918  -0.24816
 Alpha  occ. eigenvalues --   -0.23063
 Alpha virt. eigenvalues --   -0.01394  -0.00183   0.09200   0.13543   0.14340
 Alpha virt. eigenvalues --    0.15750   0.16489   0.18670   0.19534   0.26735
 Alpha virt. eigenvalues --    0.27973   0.30234   0.31364   0.46456   0.48513

 Mulliken charges:
               1
     1  C   -0.096125
     2  C   -0.060162
     3  C   -0.104042
     4  C   -0.079313
     5  C   -0.071961
     6  C   -0.110887
     7  H    0.084477
     8  H    0.089146
     9  H    0.084266
    10  H    0.087664
    11  H    0.081879
    12  H    0.095059
 Sum of Mulliken charges =  -0.00000

 Dipole moment (field-independent basis, Debye):
    X=              0.0749    Y=             -0.0205    Z=             -0.0049  Tot=              0.0778
 Quadrupole moment (field-independent basis, Debye-Ang):
   XX=            -30.5246   YY=            -32.2234   ZZ=            -38.7090
   XY=              0.3622   XZ=              0.2541   YZ=             -0.3241

 Normal termination of Gaussian 16 at Fri Nov 10 16:20:23 2023.
