 Gaussian 16, Revision B.01,
 Gaussian 16:  EM64L-G16RevB.01 20-Dec-2017

 ---------------------------------
 # TD=(NStates=1) B3LYP/6-31G(d,p)
 ---------------------------------

 -------
 ABSSPCT
 -------
 Symbolic Z-matrix:
 Charge =  0 Multiplicity = 1

                         Standard orientation:
 ---------------------------------------------------------------------
 Center     Atomic      Atomic             Coordinates (Angstroms)
 Number     Number       Type             X           Y           Z
 ---------------------------------------------------------------------
      1          6           0        1.465165    0.084569   -0.010254
      2          6           0        0.794571   -1.134263    0.002405
      3          6           0       -0.627740   -1.217183   -0.051508
      4          6           0       -1.441146   -0.135029    0.012765
      5          6           0       -0.786338    1.123078    0.019014
      6          6           0        0.554418    1.305019   -0.021635
      7          1           0        2.470838    0.096620    0.136921
      8          1           0        1.137772    2.199848   -0.001896
      9          1           0       -1.361544    1.875746   -0.082289
     10          1           0       -2.553286   -0.145152    0.169255
     11          1           0       -0.903502   -2.290200   -0.014395
     12          1           0        1.456152   -1.894008    0.087688
 ---------------------------------------------------------------------

 SCF Done:  E(RB3LYP) =  -232.203951987     A.U. after   13 cycles

 Excitation energies and oscillator strengths:

 Excited State   1:      Singlet-A      5.3978 eV  229.69 nm  f=0.0021  <S**2>=0.000
      20 -> 22         0.52394
      21 -> 22         0.13597
      21 -> 23        -0.44508
 This state for optimization and/or second-order correction.
 Total Energy, E(TD-HF/TD-DFT) =  -232.005587387
 Copying the excited state density for this state as the 1-particle RhoCI density.

 The electronic state is 1-A.
 Alpha  occ. eigenvalues --  -10.19356 -10.19126 -10.19000 -10.18522 -10.17810
 Alpha  occ. eigenvalues --  -10.17274  -0.84269  -0.74906  -0.73468  -0.60629
 Alpha  occ. eigenvalues --   -0.60113  -0.51961  -0.47453  -0.44591  -0.41855
 Alpha  occ. eigenvalues --   -0.41338  -0.35939  -0.34514  -0.31909  -0.24747
 Alpha  occ. eigenvalues --   -0.24227
 Alpha virt. eigenvalues --   -0.00791   0.00743   0.09937   0.14490   0.14787
 Alpha virt. eigenvalues --    0.15772   0.16834   0.19714   0.21019   0.26500
 Alpha virt. eigenvalues --    0.29351   0.31152   0.33796   0.46816   0.51350

 Mulliken charges:
               1
     1  C   -0.096770
     2  C   -0.069062
     3  C   -0.085001
     4  C   -0.089206
     5  C   -0.063758
     6  C   -0.088690
     7  H    0.083634
     8  H    0.087058
     9  H    0.069896
    10  H    0.095327
    11  H    0.079770
    12  H    0.076802
 Sum of Mulliken charges =  -0.00000

 Dipole moment (field-independent basis, Debye):
    X=              0.1282    Y=              0.0131    Z=              0.1915  Tot=              0.2308
 Quadrupole moment (field-independent basis, Debye-Ang):
   XX=            -30.5768   YY=            -32.1554   ZZ=            -38.3303
   XY=             -0.4202   XZ=              0.1537   YZ=             -0.2576

 Normal termination of Gaussian 16 at Fri Nov 10 16:58:11 2023.
