 Gaussian 16, Revision B.01,
 Gaussian 16:  EM64L-G16RevB.01 20-Dec-2017

 ---------------------------------
 # TD=(NStates=1) B3LYP/6-31G(d,p)
 ---------------------------------

 -------
 ABSSPCT
 -------
 Symbolic Z-matrix:
 Charge =  0 Multiplicity = 1

                         Standard orientation:
 ---------------------------------------------------------------------
 Center     Atomic      Atomic             Coordinates (Angstroms)
 Number     Number       Type             X           Y           Z
 ---------------------------------------------------------------------
      1          6           0        0.695715   -1.149531   -0.069039
      2          6           0       -0.695965   -1.181585   -0.015005
      3          6           0       -1.432802   -0.019609    0.021702
      4          6           0       -0.673048    1.200280   -0.007657
      5          6           0        0.690958    1.102149   -0.004123
      6          6           0        1.454458    0.043092   -0.008643
      7          1           0        1.213832   -2.126526    0.096997
      8          1           0        2.414316   -0.087721    0.168572
      9          1           0        1.050601    2.012761    0.112685
     10          1           0       -1.002075    2.261910   -0.061231
     11          1           0       -2.646610    0.019008    0.002502
     12          1           0       -1.265962   -2.048217    0.177061
 ---------------------------------------------------------------------

 SCF Done:  E(RB3LYP) =  -232.197797122     A.U. after   14 cycles

 Excitation energies and oscillator strengths:

 Excited State   1:      Singlet-A      5.5614 eV  222.94 nm  f=0.0056  <S**2>=0.000
      20 -> 22         0.46710
      20 -> 23        -0.15234
      21 -> 22        -0.27249
      21 -> 23        -0.42888
 This state for optimization and/or second-order correction.
 Total Energy, E(TD-HF/TD-DFT) =  -231.993420429
 Copying the excited state density for this state as the 1-particle RhoCI density.

 The electronic state is 1-A.
 Alpha  occ. eigenvalues --  -10.20280 -10.18996 -10.18795 -10.18231 -10.17391
 Alpha  occ. eigenvalues --  -10.16292  -0.85843  -0.75616  -0.73852  -0.60784
 Alpha  occ. eigenvalues --   -0.59534  -0.53128  -0.45771  -0.43850  -0.42981
 Alpha  occ. eigenvalues --   -0.40560  -0.36502  -0.34621  -0.32172  -0.25684
 Alpha  occ. eigenvalues --   -0.24068
 Alpha virt. eigenvalues --   -0.00832   0.01428   0.08510   0.13269   0.14083
 Alpha virt. eigenvalues --    0.16112   0.17747   0.19341   0.21460   0.28716
 Alpha virt. eigenvalues --    0.30068   0.31620   0.35143   0.45550   0.51855

 Mulliken charges:
               1
     1  C   -0.121071
     2  C   -0.065677
     3  C   -0.105718
     4  C   -0.084719
     5  C   -0.065852
     6  C   -0.028257
     7  H    0.075674
     8  H    0.081204
     9  H    0.062121
    10  H    0.084590
    11  H    0.080737
    12  H    0.086968
 Sum of Mulliken charges =  -0.00000

 Dipole moment (field-independent basis, Debye):
    X=              0.1428    Y=              0.0616    Z=              0.3090  Tot=              0.3460
 Quadrupole moment (field-independent basis, Debye-Ang):
   XX=            -31.5528   YY=            -31.9577   ZZ=            -38.1557
   XY=             -0.0482   XZ=              0.4092   YZ=             -0.4466

 Normal termination of Gaussian 16 at Fri Nov 10 18:00:21 2023.
