 Gaussian 16, Revision B.01,
 Gaussian 16:  EM64L-G16RevB.01 20-Dec-2017

 ---------------------------------
 # TD=(NStates=1) B3LYP/6-31G(d,p)
 ---------------------------------

 -------
 ABSSPCT
 -------
 Symbolic Z-matrix:
 Charge =  0 Multiplicity = 1

                         Standard orientation:
 ---------------------------------------------------------------------
 Center     Atomic      Atomic             Coordinates (Angstroms)
 Number     Number       Type             X           Y           Z
 ---------------------------------------------------------------------
      1          6           0        0.278028    1.296369    0.002033
      2          6           0       -1.010919    0.940539   -0.035406
      3          6           0       -1.422751   -0.428242   -0.036252
      4          6           0       -0.302770   -1.291218    0.068616
      5          6           0        1.056761   -0.915970    0.066180
      6          6           0        1.408629    0.412397   -0.030216
      7          1           0        0.362279    2.380120    0.240779
      8          1           0        2.381879    0.716408   -0.216142
      9          1           0        1.806314   -1.740209   -0.144790
     10          1           0       -0.535032   -2.338313   -0.085172
     11          1           0       -2.448124   -0.754620   -0.082573
     12          1           0       -1.609178    1.653359    0.078170
 ---------------------------------------------------------------------

 SCF Done:  E(RB3LYP) =  -232.208693875     A.U. after   12 cycles

 Excitation energies and oscillator strengths:

 Excited State   1:      Singlet-A      5.3393 eV  232.21 nm  f=0.0068  <S**2>=0.000
      20 -> 22         0.42801
      20 -> 23         0.20941
      21 -> 22         0.34777
      21 -> 23        -0.38909
 This state for optimization and/or second-order correction.
 Total Energy, E(TD-HF/TD-DFT) =  -232.012479862
 Copying the excited state density for this state as the 1-particle RhoCI density.

 The electronic state is 1-A.
 Alpha  occ. eigenvalues --  -10.19401 -10.19338 -10.18892 -10.18845 -10.18359
 Alpha  occ. eigenvalues --  -10.16781  -0.84796  -0.75117  -0.73541  -0.61186
 Alpha  occ. eigenvalues --   -0.58843  -0.52398  -0.46842  -0.43792  -0.42920
 Alpha  occ. eigenvalues --   -0.40199  -0.35953  -0.35123  -0.32370  -0.25186
 Alpha  occ. eigenvalues --   -0.23907
 Alpha virt. eigenvalues --   -0.01143   0.00767   0.09518   0.13966   0.14800
 Alpha virt. eigenvalues --    0.15429   0.17703   0.18817   0.21377   0.28815
 Alpha virt. eigenvalues --    0.29874   0.30499   0.33058   0.47398   0.51993

 Mulliken charges:
               1
     1  C   -0.096391
     2  C   -0.039294
     3  C   -0.083758
     4  C   -0.097612
     5  C   -0.084536
     6  C   -0.081807
     7  H    0.073684
     8  H    0.092473
     9  H    0.085254
    10  H    0.077002
    11  H    0.095046
    12  H    0.059938
 Sum of Mulliken charges =  -0.00000

 Dipole moment (field-independent basis, Debye):
    X=             -0.1051    Y=              0.0299    Z=             -0.1543  Tot=              0.1891
 Quadrupole moment (field-independent basis, Debye-Ang):
   XX=            -30.9243   YY=            -32.3100   ZZ=            -38.2449
   XY=             -0.0950   XZ=             -0.4995   YZ=              0.8502

 Normal termination of Gaussian 16 at Fri Nov 10 18:16:43 2023.
