 Gaussian 16, Revision B.01,
 Gaussian 16:  EM64L-G16RevB.01 20-Dec-2017

 ---------------------------------
 # TD=(NStates=1) B3LYP/6-31G(d,p)
 ---------------------------------

 -------
 ABSSPCT
 -------
 Symbolic Z-matrix:
 Charge =  0 Multiplicity = 1

                         Standard orientation:
 ---------------------------------------------------------------------
 Center     Atomic      Atomic             Coordinates (Angstroms)
 Number     Number       Type             X           Y           Z
 ---------------------------------------------------------------------
      1          6           0        0.153763   -1.354486   -0.048360
      2          6           0       -1.118816   -0.901390    0.049921
      3          6           0       -1.296509    0.514419   -0.000404
      4          6           0       -0.197856    1.394916   -0.047233
      5          6           0        1.162291    0.821445   -0.024173
      6          6           0        1.273734   -0.524658   -0.004471
      7          1           0        0.403836   -2.394197   -0.177331
      8          1           0        2.447103   -0.913386    0.347659
      9          1           0        1.943779    1.498300    0.155837
     10          1           0       -0.392061    2.475628   -0.144326
     11          1           0       -2.274784    1.160442    0.298524
     12          1           0       -1.987511   -1.528259   -0.032047
 ---------------------------------------------------------------------

 SCF Done:  E(RB3LYP) =  -232.205637820     A.U. after   12 cycles

 Excitation energies and oscillator strengths:

 Excited State   1:      Singlet-A      5.3611 eV  231.27 nm  f=0.0005  <S**2>=0.000
      20 -> 22         0.47242
      20 -> 23         0.14949
      21 -> 22        -0.17134
      21 -> 23         0.47387
 This state for optimization and/or second-order correction.
 Total Energy, E(TD-HF/TD-DFT) =  -232.008621594
 Copying the excited state density for this state as the 1-particle RhoCI density.

 The electronic state is 1-A.
 Alpha  occ. eigenvalues --  -10.20309 -10.20141 -10.19713 -10.19413 -10.18885
 Alpha  occ. eigenvalues --  -10.18869  -0.84834  -0.74464  -0.73458  -0.60686
 Alpha  occ. eigenvalues --   -0.58198  -0.50895  -0.45812  -0.44287  -0.42084
 Alpha  occ. eigenvalues --   -0.39163  -0.36773  -0.34275  -0.31441  -0.25188
 Alpha  occ. eigenvalues --   -0.24464
 Alpha virt. eigenvalues --   -0.00797  -0.00247   0.07149   0.09916   0.14545
 Alpha virt. eigenvalues --    0.15428   0.16476   0.17603   0.18513   0.28224
 Alpha virt. eigenvalues --    0.28615   0.31170   0.33408   0.46745   0.50348

 Mulliken charges:
               1
     1  C   -0.086533
     2  C   -0.080920
     3  C   -0.097032
     4  C   -0.094515
     5  C   -0.074427
     6  C   -0.077776
     7  H    0.089501
     8  H    0.066696
     9  H    0.090053
    10  H    0.090609
    11  H    0.077788
    12  H    0.096554
 Sum of Mulliken charges =  -0.00000

 Dipole moment (field-independent basis, Debye):
    X=             -0.0070    Y=              0.1245    Z=              0.2204  Tot=              0.2532
 Quadrupole moment (field-independent basis, Debye-Ang):
   XX=            -32.4319   YY=            -31.5504   ZZ=            -38.5904
   XY=              0.3474   XZ=              0.3803   YZ=              0.3937

 Normal termination of Gaussian 16 at Fri Nov 10 16:56:29 2023.
