 Gaussian 16, Revision B.01,
 Gaussian 16:  EM64L-G16RevB.01 20-Dec-2017

 ---------------------------------
 # TD=(NStates=1) B3LYP/6-31G(d,p)
 ---------------------------------

 -------
 ABSSPCT
 -------
 Symbolic Z-matrix:
 Charge =  0 Multiplicity = 1

                         Standard orientation:
 ---------------------------------------------------------------------
 Center     Atomic      Atomic             Coordinates (Angstroms)
 Number     Number       Type             X           Y           Z
 ---------------------------------------------------------------------
      1          6           0        1.043424   -0.962416    0.023974
      2          6           0       -0.330962   -1.295225   -0.086213
      3          6           0       -1.349251   -0.416507    0.049741
      4          6           0       -1.044149    0.921568    0.039721
      5          6           0        0.315339    1.376371   -0.052989
      6          6           0        1.381172    0.382598   -0.020663
      7          1           0        1.916387   -1.614464    0.173850
      8          1           0        2.404038    0.634332    0.146267
      9          1           0        0.677232    2.316037   -0.072955
     10          1           0       -1.978936    1.764688    0.095187
     11          1           0       -2.384127   -0.777508   -0.065383
     12          1           0       -0.728027   -2.361418    0.001612
 ---------------------------------------------------------------------

 SCF Done:  E(RB3LYP) =  -232.213991891     A.U. after   12 cycles

 Excitation energies and oscillator strengths:

 Excited State   1:      Singlet-A      5.3993 eV  229.63 nm  f=0.0004  <S**2>=0.000
      20 -> 22         0.48715
      21 -> 23         0.50399
 This state for optimization and/or second-order correction.
 Total Energy, E(TD-HF/TD-DFT) =  -232.015571280
 Copying the excited state density for this state as the 1-particle RhoCI density.

 The electronic state is 1-A.
 Alpha  occ. eigenvalues --  -10.20876 -10.19284 -10.19226 -10.19213 -10.19013
 Alpha  occ. eigenvalues --  -10.18652  -0.84754  -0.74989  -0.72996  -0.60556
 Alpha  occ. eigenvalues --   -0.58846  -0.51323  -0.45642  -0.44127  -0.42254
 Alpha  occ. eigenvalues --   -0.39886  -0.36026  -0.34406  -0.32349  -0.25354
 Alpha  occ. eigenvalues --   -0.24129
 Alpha virt. eigenvalues --   -0.00811   0.00229   0.07261   0.12110   0.13959
 Alpha virt. eigenvalues --    0.15074   0.16680   0.18143   0.19702   0.28083
 Alpha virt. eigenvalues --    0.29325   0.31167   0.32600   0.46133   0.50437

 Mulliken charges:
               1
     1  C   -0.077393
     2  C   -0.093566
     3  C   -0.066711
     4  C   -0.087106
     5  C   -0.077370
     6  C   -0.098179
     7  H    0.090328
     8  H    0.088754
     9  H    0.084840
    10  H    0.066417
    11  H    0.095575
    12  H    0.074411
 Sum of Mulliken charges =  -0.00000

 Dipole moment (field-independent basis, Debye):
    X=              0.1816    Y=              0.0058    Z=              0.1621  Tot=              0.2435
 Quadrupole moment (field-independent basis, Debye-Ang):
   XX=            -30.7752   YY=            -32.7555   ZZ=            -38.6800
   XY=              0.6015   XZ=              0.5376   YZ=             -0.1713

 Normal termination of Gaussian 16 at Fri Nov 10 18:43:02 2023.
