 Gaussian 16, Revision B.01,
 Gaussian 16:  EM64L-G16RevB.01 20-Dec-2017

 ---------------------------------
 # TD=(NStates=1) B3LYP/6-31G(d,p)
 ---------------------------------

 -------
 ABSSPCT
 -------
 Symbolic Z-matrix:
 Charge =  0 Multiplicity = 1

                         Standard orientation:
 ---------------------------------------------------------------------
 Center     Atomic      Atomic             Coordinates (Angstroms)
 Number     Number       Type             X           Y           Z
 ---------------------------------------------------------------------
      1          6           0        1.473401   -0.095536    0.063775
      2          6           0        0.565357   -1.198957   -0.073855
      3          6           0       -0.737447   -1.115930   -0.021403
      4          6           0       -1.430900    0.130681    0.063458
      5          6           0       -0.638254    1.124362   -0.049727
      6          6           0        0.836233    1.091395   -0.022993
      7          1           0        2.402726   -0.209265    0.080590
      8          1           0        1.323044    2.136022    0.083606
      9          1           0       -1.138980    2.165493   -0.059615
     10          1           0       -2.483328    0.281585    0.011325
     11          1           0       -1.557685   -1.896250    0.160079
     12          1           0        1.043879   -2.093685   -0.031510
 ---------------------------------------------------------------------

 SCF Done:  E(RB3LYP) =  -232.178460027     A.U. after   13 cycles

 Excitation energies and oscillator strengths:

 Excited State   1:      Singlet-A      5.7330 eV  216.27 nm  f=0.0102  <S**2>=0.000
      20 -> 22        -0.29575
      20 -> 23         0.29905
      21 -> 22         0.47021
      21 -> 23         0.31835
 This state for optimization and/or second-order correction.
 Total Energy, E(TD-HF/TD-DFT) =  -231.967777265
 Copying the excited state density for this state as the 1-particle RhoCI density.

 The electronic state is 1-A.
 Alpha  occ. eigenvalues --  -10.19596 -10.18542 -10.18209 -10.17740 -10.17466
 Alpha  occ. eigenvalues --  -10.17293  -0.86099  -0.76421  -0.73488  -0.61096
 Alpha  occ. eigenvalues --   -0.59622  -0.52175  -0.47342  -0.45105  -0.42225
 Alpha  occ. eigenvalues --   -0.39880  -0.36993  -0.34768  -0.30694  -0.26062
 Alpha  occ. eigenvalues --   -0.24469
 Alpha virt. eigenvalues --   -0.00019   0.01196   0.08597   0.12751   0.14946
 Alpha virt. eigenvalues --    0.16720   0.17078   0.19540   0.20364   0.28330
 Alpha virt. eigenvalues --    0.28715   0.32867   0.35700   0.45722   0.51523

 Mulliken charges:
               1
     1  C   -0.033386
     2  C   -0.098193
     3  C   -0.085148
     4  C   -0.065959
     5  C   -0.074674
     6  C   -0.095510
     7  H    0.067260
     8  H    0.079125
     9  H    0.058433
    10  H    0.092098
    11  H    0.079750
    12  H    0.076204
 Sum of Mulliken charges =  -0.00000

 Dipole moment (field-independent basis, Debye):
    X=              0.0305    Y=              0.0047    Z=              0.1605  Tot=              0.1634
 Quadrupole moment (field-independent basis, Debye-Ang):
   XX=            -30.4161   YY=            -33.2371   ZZ=            -38.0554
   XY=             -0.3144   XZ=              0.0739   YZ=             -0.1398

 Normal termination of Gaussian 16 at Fri Nov 10 16:35:12 2023.
