 Gaussian 16, Revision B.01,
 Gaussian 16:  EM64L-G16RevB.01 20-Dec-2017

 ---------------------------------
 # TD=(NStates=1) B3LYP/6-31G(d,p)
 ---------------------------------

 -------
 ABSSPCT
 -------
 Symbolic Z-matrix:
 Charge =  0 Multiplicity = 1

                         Standard orientation:
 ---------------------------------------------------------------------
 Center     Atomic      Atomic             Coordinates (Angstroms)
 Number     Number       Type             X           Y           Z
 ---------------------------------------------------------------------
      1          6           0       -0.996287   -0.961231   -0.068428
      2          6           0       -1.387663    0.343590    0.024787
      3          6           0       -0.364031    1.368398   -0.010829
      4          6           0        1.018841    0.939404   -0.071566
      5          6           0        1.391943   -0.379700    0.036366
      6          6           0        0.392433   -1.333569    0.039698
      7          1           0       -1.854872   -1.725150   -0.063093
      8          1           0        0.554373   -2.411524    0.102229
      9          1           0        2.448699   -0.405208   -0.028078
     10          1           0        1.800920    1.706299    0.015700
     11          1           0       -0.782367    2.423665    0.211520
     12          1           0       -2.498171    0.550567    0.061552
 ---------------------------------------------------------------------

 SCF Done:  E(RB3LYP) =  -232.225820935     A.U. after   13 cycles

 Excitation energies and oscillator strengths:

 Excited State   1:      Singlet-A      5.3610 eV  231.27 nm  f=0.0004  <S**2>=0.000
      20 -> 22         0.49171
      21 -> 23         0.50176
 This state for optimization and/or second-order correction.
 Total Energy, E(TD-HF/TD-DFT) =  -232.028806631
 Copying the excited state density for this state as the 1-particle RhoCI density.

 The electronic state is 1-A.
 Alpha  occ. eigenvalues --  -10.20436 -10.19703 -10.19476 -10.19371 -10.19319
 Alpha  occ. eigenvalues --  -10.18802  -0.84352  -0.75011  -0.72458  -0.60645
 Alpha  occ. eigenvalues --   -0.58246  -0.51155  -0.45631  -0.43690  -0.41809
 Alpha  occ. eigenvalues --   -0.40169  -0.35878  -0.33639  -0.33168  -0.25519
 Alpha  occ. eigenvalues --   -0.23755
 Alpha virt. eigenvalues --   -0.01187   0.00515   0.07977   0.12951   0.13226
 Alpha virt. eigenvalues --    0.15145   0.16136   0.17912   0.19042   0.28126
 Alpha virt. eigenvalues --    0.28898   0.30832   0.32029   0.46402   0.51029

 Mulliken charges:
               1
     1  C   -0.076855
     2  C   -0.085215
     3  C   -0.096923
     4  C   -0.108968
     5  C   -0.050383
     6  C   -0.108174
     7  H    0.081792
     8  H    0.087441
     9  H    0.094456
    10  H    0.085532
    11  H    0.089182
    12  H    0.088115
 Sum of Mulliken charges =  -0.00000

 Dipole moment (field-independent basis, Debye):
    X=             -0.0183    Y=             -0.0055    Z=              0.1906  Tot=              0.1916
 Quadrupole moment (field-independent basis, Debye-Ang):
   XX=            -30.8440   YY=            -32.5067   ZZ=            -38.7979
   XY=              0.3042   XZ=             -0.1720   YZ=              0.3632

 Normal termination of Gaussian 16 at Fri Nov 10 16:59:45 2023.
