 Gaussian 16, Revision B.01,
 Gaussian 16:  EM64L-G16RevB.01 20-Dec-2017

 ---------------------------------
 # TD=(NStates=1) B3LYP/6-31G(d,p)
 ---------------------------------

 -------
 ABSSPCT
 -------
 Symbolic Z-matrix:
 Charge =  0 Multiplicity = 1

                         Standard orientation:
 ---------------------------------------------------------------------
 Center     Atomic      Atomic             Coordinates (Angstroms)
 Number     Number       Type             X           Y           Z
 ---------------------------------------------------------------------
      1          6           0       -1.456658   -0.119892   -0.007715
      2          6           0       -0.591688   -1.250984   -0.065112
      3          6           0        0.882847   -1.162227    0.066670
      4          6           0        1.357890    0.176062   -0.006734
      5          6           0        0.574437    1.214165   -0.124804
      6          6           0       -0.788270    1.077537    0.134397
      7          1           0       -2.502710   -0.258661   -0.102451
      8          1           0       -1.426753    2.094241   -0.024474
      9          1           0        1.052057    2.229438    0.098279
     10          1           0        2.535027    0.326162   -0.040447
     11          1           0        1.401608   -1.890379    0.111245
     12          1           0       -0.930585   -2.108778   -0.022368
 ---------------------------------------------------------------------

 SCF Done:  E(RB3LYP) =  -232.148348495     A.U. after   13 cycles

 Excitation energies and oscillator strengths:

 Excited State   1:      Singlet-A      5.3338 eV  232.45 nm  f=0.0007  <S**2>=0.000
      20 -> 22         0.52227
      21 -> 23        -0.47569
 This state for optimization and/or second-order correction.
 Total Energy, E(TD-HF/TD-DFT) =  -231.952333167
 Copying the excited state density for this state as the 1-particle RhoCI density.

 The electronic state is 1-A.
 Alpha  occ. eigenvalues --  -10.19786 -10.19193 -10.19170 -10.18265 -10.18261
 Alpha  occ. eigenvalues --  -10.18118  -0.85209  -0.75156  -0.74097  -0.61787
 Alpha  occ. eigenvalues --   -0.59546  -0.52664  -0.46523  -0.44057  -0.42608
 Alpha  occ. eigenvalues --   -0.41035  -0.36609  -0.33323  -0.32292  -0.25531
 Alpha  occ. eigenvalues --   -0.24149
 Alpha virt. eigenvalues --   -0.01656   0.00369   0.07841   0.13009   0.14273
 Alpha virt. eigenvalues --    0.16362   0.17513   0.18609   0.20492   0.27557
 Alpha virt. eigenvalues --    0.29332   0.31511   0.34051   0.45630   0.46420

 Mulliken charges:
               1
     1  C   -0.066565
     2  C   -0.079771
     3  C   -0.019492
     4  C   -0.076703
     5  C   -0.075203
     6  C   -0.100880
     7  H    0.097086
     8  H    0.064002
     9  H    0.084989
    10  H    0.068233
    11  H    0.044454
    12  H    0.059849
 Sum of Mulliken charges =  -0.00000

 Dipole moment (field-independent basis, Debye):
    X=             -0.0687    Y=             -0.3895    Z=              0.0296  Tot=              0.3967
 Quadrupole moment (field-independent basis, Debye-Ang):
   XX=            -31.5453   YY=            -32.0673   ZZ=            -38.2997
   XY=              0.1571   XZ=              0.5097   YZ=              0.0051

 Normal termination of Gaussian 16 at Fri Nov 10 17:49:45 2023.
