 Gaussian 16, Revision B.01,
 Gaussian 16:  EM64L-G16RevB.01 20-Dec-2017

 ---------------------------------
 # TD=(NStates=1) B3LYP/6-31G(d,p)
 ---------------------------------

 -------
 ABSSPCT
 -------
 Symbolic Z-matrix:
 Charge =  0 Multiplicity = 1

                         Standard orientation:
 ---------------------------------------------------------------------
 Center     Atomic      Atomic             Coordinates (Angstroms)
 Number     Number       Type             X           Y           Z
 ---------------------------------------------------------------------
      1          6           0       -1.454627   -0.121895    0.002025
      2          6           0       -0.551550   -1.159468   -0.115370
      3          6           0        0.825649   -1.110140    0.076754
      4          6           0        1.398410    0.082412    0.055793
      5          6           0        0.597301    1.232899   -0.070566
      6          6           0       -0.855402    1.065801    0.015057
      7          1           0       -2.531665   -0.401001    0.225085
      8          1           0       -1.441218    1.807355    0.184551
      9          1           0        1.168990    2.328079   -0.096357
     10          1           0        2.503918    0.273029   -0.049287
     11          1           0        1.620303   -1.894397    0.051775
     12          1           0       -1.079014   -2.050716   -0.097929
 ---------------------------------------------------------------------

 SCF Done:  E(RB3LYP) =  -232.183563015     A.U. after   13 cycles

 Excitation energies and oscillator strengths:

 Excited State   1:      Singlet-A      5.5293 eV  224.23 nm  f=0.0020  <S**2>=0.000
      20 -> 22        -0.46810
      21 -> 23         0.52459
 This state for optimization and/or second-order correction.
 Total Energy, E(TD-HF/TD-DFT) =  -231.980365245
 Copying the excited state density for this state as the 1-particle RhoCI density.

 The electronic state is 1-A.
 Alpha  occ. eigenvalues --  -10.20465 -10.18603 -10.18565 -10.18452 -10.17870
 Alpha  occ. eigenvalues --  -10.17602  -0.85934  -0.76475  -0.72722  -0.61391
 Alpha  occ. eigenvalues --   -0.58480  -0.52198  -0.45761  -0.43925  -0.43446
 Alpha  occ. eigenvalues --   -0.38658  -0.36616  -0.34406  -0.32280  -0.26264
 Alpha  occ. eigenvalues --   -0.23449
 Alpha virt. eigenvalues --   -0.00913   0.01188   0.07334   0.12296   0.13038
 Alpha virt. eigenvalues --    0.15901   0.17937   0.18555   0.20540   0.28550
 Alpha virt. eigenvalues --    0.30110   0.32431   0.34552   0.44680   0.51311

 Mulliken charges:
               1
     1  C   -0.072629
     2  C   -0.100498
     3  C   -0.061418
     4  C   -0.082107
     5  C   -0.089152
     6  C   -0.078861
     7  H    0.100559
     8  H    0.066193
     9  H    0.074869
    10  H    0.086026
    11  H    0.088812
    12  H    0.068206
 Sum of Mulliken charges =  -0.00000

 Dipole moment (field-independent basis, Debye):
    X=             -0.0883    Y=             -0.0537    Z=              0.1577  Tot=              0.1885
 Quadrupole moment (field-independent basis, Debye-Ang):
   XX=            -30.3962   YY=            -33.2184   ZZ=            -38.2863
   XY=              0.2535   XZ=             -0.7726   YZ=              0.0864

 Normal termination of Gaussian 16 at Fri Nov 10 17:37:11 2023.
