 Gaussian 16, Revision B.01,
 Gaussian 16:  EM64L-G16RevB.01 20-Dec-2017

 ---------------------------------
 # TD=(NStates=1) B3LYP/6-31G(d,p)
 ---------------------------------

 -------
 ABSSPCT
 -------
 Symbolic Z-matrix:
 Charge =  0 Multiplicity = 1

                         Standard orientation:
 ---------------------------------------------------------------------
 Center     Atomic      Atomic             Coordinates (Angstroms)
 Number     Number       Type             X           Y           Z
 ---------------------------------------------------------------------
      1          6           0        1.119813   -0.900848   -0.003123
      2          6           0       -0.236360   -1.369100   -0.011643
      3          6           0       -1.364571   -0.487508    0.005285
      4          6           0       -1.054813    0.866309   -0.053744
      5          6           0        0.239069    1.355906    0.028757
      6          6           0        1.322846    0.505075    0.012290
      7          1           0        1.917625   -1.566727   -0.010240
      8          1           0        2.379493    0.915989   -0.017035
      9          1           0        0.304127    2.409262    0.059985
     10          1           0       -2.020251    1.594367   -0.098833
     11          1           0       -2.322495   -0.863337    0.265386
     12          1           0       -0.414403   -2.308556   -0.066200
 ---------------------------------------------------------------------

 SCF Done:  E(RB3LYP) =  -232.220915049     A.U. after   13 cycles

 Excitation energies and oscillator strengths:

 Excited State   1:      Singlet-A      5.3381 eV  232.26 nm  f=0.0006  <S**2>=0.000
      20 -> 22        -0.10843
      20 -> 23         0.46589
      21 -> 22         0.50825
      21 -> 23         0.11170
 This state for optimization and/or second-order correction.
 Total Energy, E(TD-HF/TD-DFT) =  -232.024743524
 Copying the excited state density for this state as the 1-particle RhoCI density.

 The electronic state is 1-A.
 Alpha  occ. eigenvalues --  -10.19661 -10.19573 -10.19013 -10.18775 -10.18393
 Alpha  occ. eigenvalues --  -10.18072  -0.84364  -0.74292  -0.73718  -0.60623
 Alpha  occ. eigenvalues --   -0.59483  -0.51874  -0.46547  -0.43608  -0.42148
 Alpha  occ. eigenvalues --   -0.41386  -0.35795  -0.34244  -0.33241  -0.24543
 Alpha  occ. eigenvalues --   -0.24317
 Alpha virt. eigenvalues --   -0.00362  -0.00012   0.08579   0.13526   0.14760
 Alpha virt. eigenvalues --    0.16048   0.17846   0.18024   0.19968   0.29006
 Alpha virt. eigenvalues --    0.29353   0.31614   0.32177   0.46593   0.51181

 Mulliken charges:
               1
     1  C   -0.077516
     2  C   -0.078304
     3  C   -0.081236
     4  C   -0.093472
     5  C   -0.061489
     6  C   -0.098134
     7  H    0.086460
     8  H    0.085305
     9  H    0.086426
    10  H    0.068170
    11  H    0.095586
    12  H    0.068205
 Sum of Mulliken charges =  -0.00000

 Dipole moment (field-independent basis, Debye):
    X=              0.0259    Y=             -0.1407    Z=              0.1022  Tot=              0.1758
 Quadrupole moment (field-independent basis, Debye-Ang):
   XX=            -31.3272   YY=            -31.7172   ZZ=            -38.4867
   XY=              0.1335   XZ=             -0.4265   YZ=             -0.0599

 Normal termination of Gaussian 16 at Fri Nov 10 19:03:22 2023.
