 Gaussian 16, Revision B.01,
 Gaussian 16:  EM64L-G16RevB.01 20-Dec-2017

 ---------------------------------
 # TD=(NStates=1) B3LYP/6-31G(d,p)
 ---------------------------------

 -------
 ABSSPCT
 -------
 Symbolic Z-matrix:
 Charge =  0 Multiplicity = 1

                         Standard orientation:
 ---------------------------------------------------------------------
 Center     Atomic      Atomic             Coordinates (Angstroms)
 Number     Number       Type             X           Y           Z
 ---------------------------------------------------------------------
      1          6           0        1.240267    0.594865    0.000007
      2          6           0        0.031444    1.343313   -0.050231
      3          6           0       -1.162337    0.744412    0.068323
      4          6           0       -1.278785   -0.640786   -0.016537
      5          6           0       -0.057064   -1.359780   -0.043179
      6          6           0        1.187708   -0.731839    0.029488
      7          1           0        2.311816    1.148642   -0.122830
      8          1           0        2.218849   -1.213195    0.159753
      9          1           0       -0.252202   -2.436795   -0.057731
     10          1           0       -2.143695   -1.133518    0.092981
     11          1           0       -2.046896    1.475100   -0.113280
     12          1           0        0.144730    2.458655    0.113883
 ---------------------------------------------------------------------

 SCF Done:  E(RB3LYP) =  -232.214438334     A.U. after   12 cycles

 Excitation energies and oscillator strengths:

 Excited State   1:      Singlet-A      5.5709 eV  222.56 nm  f=0.0005  <S**2>=0.000
      20 -> 22        -0.49070
      21 -> 22         0.10159
      21 -> 23         0.49385
 This state for optimization and/or second-order correction.
 Total Energy, E(TD-HF/TD-DFT) =  -232.009710688
 Copying the excited state density for this state as the 1-particle RhoCI density.

 The electronic state is 1-A.
 Alpha  occ. eigenvalues --  -10.19439 -10.19371 -10.19091 -10.18925 -10.18649
 Alpha  occ. eigenvalues --  -10.18420  -0.85699  -0.75201  -0.73779  -0.60200
 Alpha  occ. eigenvalues --   -0.59105  -0.51711  -0.45159  -0.44085  -0.41886
 Alpha  occ. eigenvalues --   -0.40186  -0.36708  -0.34499  -0.32137  -0.25718
 Alpha  occ. eigenvalues --   -0.24384
 Alpha virt. eigenvalues --   -0.00560   0.00690   0.06858   0.12322   0.14022
 Alpha virt. eigenvalues --    0.16224   0.16826   0.17604   0.19222   0.28813
 Alpha virt. eigenvalues --    0.30390   0.31609   0.33900   0.45895   0.49724

 Mulliken charges:
               1
     1  C   -0.086197
     2  C   -0.082069
     3  C   -0.087688
     4  C   -0.070949
     5  C   -0.105700
     6  C   -0.061115
     7  H    0.076626
     8  H    0.087173
     9  H    0.083275
    10  H    0.086371
    11  H    0.078027
    12  H    0.082244
 Sum of Mulliken charges =  -0.00000

 Dipole moment (field-independent basis, Debye):
    X=             -0.0074    Y=             -0.1119    Z=              0.0579  Tot=              0.1262
 Quadrupole moment (field-independent basis, Debye-Ang):
   XX=            -31.5841   YY=            -32.3280   ZZ=            -38.4616
   XY=              0.5801   XZ=              0.1052   YZ=             -0.1550

 Normal termination of Gaussian 16 at Fri Nov 10 18:13:16 2023.
