 Gaussian 16, Revision B.01,
 Gaussian 16:  EM64L-G16RevB.01 20-Dec-2017

 ---------------------------------
 # TD=(NStates=1) B3LYP/6-31G(d,p)
 ---------------------------------

 -------
 ABSSPCT
 -------
 Symbolic Z-matrix:
 Charge =  0 Multiplicity = 1

                         Standard orientation:
 ---------------------------------------------------------------------
 Center     Atomic      Atomic             Coordinates (Angstroms)
 Number     Number       Type             X           Y           Z
 ---------------------------------------------------------------------
      1          6           0       -1.326167    0.395312   -0.056655
      2          6           0       -1.026685   -0.969529    0.008335
      3          6           0        0.319890   -1.303857    0.005973
      4          6           0        1.392750   -0.413845   -0.039874
      5          6           0        1.034521    0.952513    0.000562
      6          6           0       -0.347773    1.322110    0.039641
      7          1           0       -2.415864    0.726266    0.016063
      8          1           0       -0.656380    2.430760   -0.124653
      9          1           0        1.805039    1.737422    0.128698
     10          1           0        2.442758   -0.739217    0.132428
     11          1           0        0.446826   -2.428958   -0.173714
     12          1           0       -1.901595   -1.622498    0.273284
 ---------------------------------------------------------------------

 SCF Done:  E(RB3LYP) =  -232.229005778     A.U. after   13 cycles

 Excitation energies and oscillator strengths:

 Excited State   1:      Singlet-A      5.4019 eV  229.52 nm  f=0.0006  <S**2>=0.000
      20 -> 22         0.47721
      20 -> 23         0.12194
      21 -> 22        -0.15093
      21 -> 23         0.48385
 This state for optimization and/or second-order correction.
 Total Energy, E(TD-HF/TD-DFT) =  -232.030489260
 Copying the excited state density for this state as the 1-particle RhoCI density.

 The electronic state is 1-A.
 Alpha  occ. eigenvalues --  -10.19856 -10.19801 -10.19526 -10.19345 -10.19160
 Alpha  occ. eigenvalues --  -10.18826  -0.84999  -0.74455  -0.73472  -0.59761
 Alpha  occ. eigenvalues --   -0.58939  -0.50956  -0.44919  -0.44117  -0.41763
 Alpha  occ. eigenvalues --   -0.40003  -0.36896  -0.34550  -0.31578  -0.25349
 Alpha  occ. eigenvalues --   -0.24406
 Alpha virt. eigenvalues --   -0.00861   0.00056   0.07882   0.12162   0.13204
 Alpha virt. eigenvalues --    0.15840   0.16645   0.17257   0.18398   0.28350
 Alpha virt. eigenvalues --    0.29565   0.30953   0.33486   0.46034   0.50194

 Mulliken charges:
               1
     1  C   -0.082077
     2  C   -0.078235
     3  C   -0.101864
     4  C   -0.077801
     5  C   -0.104000
     6  C   -0.076672
     7  H    0.079400
     8  H    0.079951
     9  H    0.088979
    10  H    0.098546
    11  H    0.077839
    12  H    0.095933
 Sum of Mulliken charges =  -0.00000

 Dipole moment (field-independent basis, Debye):
    X=             -0.0270    Y=              0.0216    Z=              0.1702  Tot=              0.1737
 Quadrupole moment (field-independent basis, Debye-Ang):
   XX=            -31.2358   YY=            -32.6398   ZZ=            -38.6237
   XY=              0.2856   XZ=              0.0081   YZ=             -0.1760

 Normal termination of Gaussian 16 at Fri Nov 10 18:37:12 2023.
