 Gaussian 16, Revision B.01,
 Gaussian 16:  EM64L-G16RevB.01 20-Dec-2017

 ---------------------------------
 # TD=(NStates=1) B3LYP/6-31G(d,p)
 ---------------------------------

 -------
 ABSSPCT
 -------
 Symbolic Z-matrix:
 Charge =  0 Multiplicity = 1

                         Standard orientation:
 ---------------------------------------------------------------------
 Center     Atomic      Atomic             Coordinates (Angstroms)
 Number     Number       Type             X           Y           Z
 ---------------------------------------------------------------------
      1          6           0        0.692169    1.156283   -0.020106
      2          6           0        1.406411   -0.070146    0.021621
      3          6           0        0.649380   -1.164535   -0.023039
      4          6           0       -0.726895   -1.126045    0.000173
      5          6           0       -1.351842    0.039909    0.074481
      6          6           0       -0.626160    1.159186   -0.021672
      7          1           0        1.146662    2.194746    0.207416
      8          1           0       -1.068314    2.088689   -0.182437
      9          1           0       -2.551875    0.136867   -0.108625
     10          1           0       -1.236564   -2.015334   -0.016201
     11          1           0        0.874798   -2.221627   -0.007860
     12          1           0        2.576914   -0.151251   -0.081037
 ---------------------------------------------------------------------

 SCF Done:  E(RB3LYP) =  -232.199251184     A.U. after   12 cycles

 Excitation energies and oscillator strengths:

 Excited State   1:      Singlet-A      5.8257 eV  212.82 nm  f=0.0040  <S**2>=0.000
      20 -> 22         0.42469
      20 -> 23        -0.22972
      21 -> 22        -0.34766
      21 -> 23        -0.38101
 This state for optimization and/or second-order correction.
 Total Energy, E(TD-HF/TD-DFT) =  -231.985160551
 Copying the excited state density for this state as the 1-particle RhoCI density.

 The electronic state is 1-A.
 Alpha  occ. eigenvalues --  -10.19648 -10.18726 -10.18385 -10.17754 -10.16999
 Alpha  occ. eigenvalues --  -10.16691  -0.87328  -0.75800  -0.74762  -0.61007
 Alpha  occ. eigenvalues --   -0.59527  -0.52222  -0.45884  -0.43736  -0.41477
 Alpha  occ. eigenvalues --   -0.41105  -0.38042  -0.33862  -0.32195  -0.25849
 Alpha  occ. eigenvalues --   -0.25002
 Alpha virt. eigenvalues --    0.00003   0.01528   0.07673   0.11534   0.13902
 Alpha virt. eigenvalues --    0.15611   0.18169   0.20014   0.20810   0.29482
 Alpha virt. eigenvalues --    0.31958   0.33738   0.35422   0.45323   0.51623

 Mulliken charges:
               1
     1  C   -0.097184
     2  C   -0.110053
     3  C   -0.051003
     4  C   -0.082115
     5  C   -0.071255
     6  C   -0.058454
     7  H    0.080482
     8  H    0.080763
     9  H    0.064036
    10  H    0.079491
    11  H    0.079051
    12  H    0.086242
 Sum of Mulliken charges =  -0.00000

 Dipole moment (field-independent basis, Debye):
    X=             -0.0894    Y=             -0.0928    Z=             -0.0970  Tot=              0.1613
 Quadrupole moment (field-independent basis, Debye-Ang):
   XX=            -32.7827   YY=            -31.4811   ZZ=            -37.9693
   XY=              0.0643   XZ=              0.3952   YZ=              0.1040

 Normal termination of Gaussian 16 at Fri Nov 10 19:06:34 2023.
