 Gaussian 16, Revision B.01,
 Gaussian 16:  EM64L-G16RevB.01 20-Dec-2017

 ---------------------------------
 # TD=(NStates=1) B3LYP/6-31G(d,p)
 ---------------------------------

 -------
 ABSSPCT
 -------
 Symbolic Z-matrix:
 Charge =  0 Multiplicity = 1

                         Standard orientation:
 ---------------------------------------------------------------------
 Center     Atomic      Atomic             Coordinates (Angstroms)
 Number     Number       Type             X           Y           Z
 ---------------------------------------------------------------------
      1          6           0       -1.435952   -0.155214   -0.040340
      2          6           0       -0.593662   -1.285047    0.018400
      3          6           0        0.810219   -1.163888   -0.028439
      4          6           0        1.419643    0.113367    0.039651
      5          6           0        0.583006    1.311978    0.010689
      6          6           0       -0.799806    1.109936   -0.032395
      7          1           0       -2.549864   -0.066862    0.088693
      8          1           0       -1.445239    2.118875    0.136531
      9          1           0        0.997236    2.274970   -0.061340
     10          1           0        2.628088    0.250611   -0.020652
     11          1           0        1.489975   -1.900543   -0.033051
     12          1           0       -1.020872   -2.263843    0.084429
 ---------------------------------------------------------------------

 SCF Done:  E(RB3LYP) =  -232.219147129     A.U. after   13 cycles

 Excitation energies and oscillator strengths:

 Excited State   1:      Singlet-A      5.2829 eV  234.69 nm  f=0.0009  <S**2>=0.000
      20 -> 22         0.52259
      21 -> 23         0.46839
 This state for optimization and/or second-order correction.
 Total Energy, E(TD-HF/TD-DFT) =  -232.025002529
 Copying the excited state density for this state as the 1-particle RhoCI density.

 The electronic state is 1-A.
 Alpha  occ. eigenvalues --  -10.20832 -10.20045 -10.19963 -10.19746 -10.19177
 Alpha  occ. eigenvalues --  -10.18711  -0.83872  -0.73962  -0.73286  -0.60364
 Alpha  occ. eigenvalues --   -0.58505  -0.51404  -0.45476  -0.43895  -0.41379
 Alpha  occ. eigenvalues --   -0.40934  -0.35461  -0.34075  -0.32860  -0.24651
 Alpha  occ. eigenvalues --   -0.24409
 Alpha virt. eigenvalues --   -0.00970  -0.00039   0.07640   0.11821   0.13908
 Alpha virt. eigenvalues --    0.15032   0.16733   0.17978   0.18542   0.27461
 Alpha virt. eigenvalues --    0.28881   0.30501   0.31984   0.46717   0.50508

 Mulliken charges:
               1
     1  C   -0.081498
     2  C   -0.100091
     3  C   -0.059431
     4  C   -0.105924
     5  C   -0.072078
     6  C   -0.091000
     7  H    0.098011
     8  H    0.069343
     9  H    0.090986
    10  H    0.078091
    11  H    0.084423
    12  H    0.089166
 Sum of Mulliken charges =  -0.00000

 Dipole moment (field-independent basis, Debye):
    X=              0.0601    Y=             -0.0391    Z=              0.1094  Tot=              0.1308
 Quadrupole moment (field-independent basis, Debye-Ang):
   XX=            -31.4663   YY=            -31.7643   ZZ=            -38.9077
   XY=             -0.0401   XZ=             -0.5734   YZ=             -0.0114

 Normal termination of Gaussian 16 at Fri Nov 10 18:30:49 2023.
