 Gaussian 16, Revision B.01,
 Gaussian 16:  EM64L-G16RevB.01 20-Dec-2017

 ---------------------------------
 # TD=(NStates=1) B3LYP/6-31G(d,p)
 ---------------------------------

 -------
 ABSSPCT
 -------
 Symbolic Z-matrix:
 Charge =  0 Multiplicity = 1

                         Standard orientation:
 ---------------------------------------------------------------------
 Center     Atomic      Atomic             Coordinates (Angstroms)
 Number     Number       Type             X           Y           Z
 ---------------------------------------------------------------------
      1          6           0       -0.286026    1.326101   -0.044519
      2          6           0       -1.355058    0.445040   -0.008217
      3          6           0       -1.056932   -0.920695    0.081770
      4          6           0        0.280380   -1.338749   -0.040738
      5          6           0        1.377332   -0.467089   -0.000410
      6          6           0        1.054147    0.943325   -0.010908
      7          1           0       -0.553696    2.298650   -0.069995
      8          1           0        1.793383    1.754025    0.291772
      9          1           0        2.416158   -0.822636   -0.003589
     10          1           0        0.439300   -2.275150   -0.079212
     11          1           0       -1.889215   -1.762430   -0.010568
     12          1           0       -2.288989    0.879948    0.009722
 ---------------------------------------------------------------------

 SCF Done:  E(RB3LYP) =  -232.215266312     A.U. after   13 cycles

 Excitation energies and oscillator strengths:

 Excited State   1:      Singlet-A      5.3496 eV  231.76 nm  f=0.0016  <S**2>=0.000
      20 -> 22         0.48868
      20 -> 23        -0.15828
      21 -> 22        -0.20265
      21 -> 23        -0.44127
 This state for optimization and/or second-order correction.
 Total Energy, E(TD-HF/TD-DFT) =  -232.018672632
 Copying the excited state density for this state as the 1-particle RhoCI density.

 The electronic state is 1-A.
 Alpha  occ. eigenvalues --  -10.19876 -10.19683 -10.19620 -10.18285 -10.17620
 Alpha  occ. eigenvalues --  -10.17575  -0.84450  -0.74890  -0.73305  -0.60366
 Alpha  occ. eigenvalues --   -0.60025  -0.51703  -0.46768  -0.43605  -0.42447
 Alpha  occ. eigenvalues --   -0.40712  -0.35688  -0.34752  -0.33209  -0.24767
 Alpha  occ. eigenvalues --   -0.24262
 Alpha virt. eigenvalues --   -0.00841   0.00397   0.09254   0.13209   0.14962
 Alpha virt. eigenvalues --    0.15264   0.16869   0.19788   0.20687   0.28897
 Alpha virt. eigenvalues --    0.29990   0.31285   0.31865   0.47321   0.51360

 Mulliken charges:
               1
     1  C   -0.066024
     2  C   -0.069394
     3  C   -0.099394
     4  C   -0.051068
     5  C   -0.095001
     6  C   -0.101703
     7  H    0.074832
     8  H    0.086463
     9  H    0.092797
    10  H    0.066831
    11  H    0.077714
    12  H    0.083947
 Sum of Mulliken charges =   0.00000

 Dipole moment (field-independent basis, Debye):
    X=             -0.0426    Y=              0.0332    Z=              0.0746  Tot=              0.0921
 Quadrupole moment (field-independent basis, Debye-Ang):
   XX=            -31.5682   YY=            -31.4632   ZZ=            -38.4159
   XY=             -0.5725   XZ=              0.4327   YZ=              0.5041

 Normal termination of Gaussian 16 at Fri Nov 10 18:11:43 2023.
