 Gaussian 16, Revision B.01,
 Gaussian 16:  EM64L-G16RevB.01 20-Dec-2017

 ---------------------------------
 # TD=(NStates=1) B3LYP/6-31G(d,p)
 ---------------------------------

 -------
 ABSSPCT
 -------
 Symbolic Z-matrix:
 Charge =  0 Multiplicity = 1

                         Standard orientation:
 ---------------------------------------------------------------------
 Center     Atomic      Atomic             Coordinates (Angstroms)
 Number     Number       Type             X           Y           Z
 ---------------------------------------------------------------------
      1          6           0        0.510401    1.305218   -0.049898
      2          6           0       -0.919907    1.026278   -0.029078
      3          6           0       -1.443147   -0.259072   -0.013631
      4          6           0       -0.471253   -1.244647    0.025748
      5          6           0        0.918519   -1.013681   -0.056238
      6          6           0        1.425446    0.177791    0.094268
      7          1           0        0.924054    2.262834   -0.076201
      8          1           0        2.537298    0.324908    0.177060
      9          1           0        1.555933   -1.833760   -0.190977
     10          1           0       -0.939359   -2.251731   -0.012828
     11          1           0       -2.529201   -0.435465    0.212100
     12          1           0       -1.669084    1.981900    0.063821
 ---------------------------------------------------------------------

 SCF Done:  E(RB3LYP) =  -232.215461090     A.U. after   13 cycles

 Excitation energies and oscillator strengths:

 Excited State   1:      Singlet-A      5.3474 eV  231.86 nm  f=0.0067  <S**2>=0.000
      20 -> 22         0.42666
      20 -> 23        -0.12382
      21 -> 22         0.26088
      21 -> 23         0.48363
 This state for optimization and/or second-order correction.
 Total Energy, E(TD-HF/TD-DFT) =  -232.018948972
 Copying the excited state density for this state as the 1-particle RhoCI density.

 The electronic state is 1-A.
 Alpha  occ. eigenvalues --  -10.20514 -10.19554 -10.19192 -10.19086 -10.18990
 Alpha  occ. eigenvalues --  -10.17837  -0.84972  -0.75468  -0.72486  -0.60371
 Alpha  occ. eigenvalues --   -0.58498  -0.51689  -0.45483  -0.43797  -0.42622
 Alpha  occ. eigenvalues --   -0.39986  -0.36437  -0.34260  -0.32469  -0.25786
 Alpha  occ. eigenvalues --   -0.23339
 Alpha virt. eigenvalues --   -0.01020   0.00713   0.08024   0.12404   0.13910
 Alpha virt. eigenvalues --    0.15341   0.17133   0.17879   0.19013   0.28316
 Alpha virt. eigenvalues --    0.28632   0.32495   0.32907   0.45861   0.50595

 Mulliken charges:
               1
     1  C   -0.096905
     2  C   -0.091145
     3  C   -0.076027
     4  C   -0.099219
     5  C   -0.055062
     6  C   -0.086137
     7  H    0.089027
     8  H    0.087968
     9  H    0.083312
    10  H    0.078126
    11  H    0.097921
    12  H    0.068141
 Sum of Mulliken charges =  -0.00000

 Dipole moment (field-independent basis, Debye):
    X=              0.1475    Y=             -0.0846    Z=              0.1030  Tot=              0.1988
 Quadrupole moment (field-independent basis, Debye-Ang):
   XX=            -30.8557   YY=            -32.5726   ZZ=            -38.5766
   XY=              0.3754   XZ=             -0.4851   YZ=              0.2344

 Normal termination of Gaussian 16 at Fri Nov 10 16:14:58 2023.
