 Gaussian 16, Revision B.01,
 Gaussian 16:  EM64L-G16RevB.01 20-Dec-2017

 ---------------------------------
 # TD=(NStates=1) B3LYP/6-31G(d,p)
 ---------------------------------

 -------
 ABSSPCT
 -------
 Symbolic Z-matrix:
 Charge =  0 Multiplicity = 1

                         Standard orientation:
 ---------------------------------------------------------------------
 Center     Atomic      Atomic             Coordinates (Angstroms)
 Number     Number       Type             X           Y           Z
 ---------------------------------------------------------------------
      1          6           0       -1.376752   -0.273166    0.010909
      2          6           0       -0.435347   -1.288224   -0.004749
      3          6           0        0.893858   -0.979630   -0.011936
      4          6           0        1.369934    0.265327    0.005002
      5          6           0        0.433065    1.258744   -0.014697
      6          6           0       -0.915392    1.011053   -0.010654
      7          1           0       -2.444905   -0.379819   -0.037372
      8          1           0       -1.602766    1.800401    0.007519
      9          1           0        0.800936    2.377141    0.138613
     10          1           0        2.537412    0.398578   -0.074150
     11          1           0        1.654994   -1.818239    0.070812
     12          1           0       -0.761866   -2.342679    0.051327
 ---------------------------------------------------------------------

 SCF Done:  E(RB3LYP) =  -232.231281187     A.U. after   12 cycles

 Excitation energies and oscillator strengths:

 Excited State   1:      Singlet-A      5.8003 eV  213.76 nm  f=0.0020  <S**2>=0.000
      20 -> 22        -0.40584
      20 -> 23         0.24665
      21 -> 22         0.32452
      21 -> 23         0.41066
 This state for optimization and/or second-order correction.
 Total Energy, E(TD-HF/TD-DFT) =  -232.018125368
 Copying the excited state density for this state as the 1-particle RhoCI density.

 The electronic state is 1-A.
 Alpha  occ. eigenvalues --  -10.19070 -10.18801 -10.18548 -10.18312 -10.18157
 Alpha  occ. eigenvalues --  -10.17708  -0.86531  -0.75467  -0.74033  -0.60263
 Alpha  occ. eigenvalues --   -0.59450  -0.51942  -0.45293  -0.44074  -0.42045
 Alpha  occ. eigenvalues --   -0.40647  -0.37470  -0.33958  -0.32601  -0.25713
 Alpha  occ. eigenvalues --   -0.24844
 Alpha virt. eigenvalues --    0.00325   0.01169   0.07253   0.13173   0.13398
 Alpha virt. eigenvalues --    0.16904   0.17738   0.18491   0.19662   0.30686
 Alpha virt. eigenvalues --    0.30715   0.33023   0.34425   0.45603   0.52052

 Mulliken charges:
               1
     1  C   -0.082730
     2  C   -0.085535
     3  C   -0.077893
     4  C   -0.069369
     5  C   -0.099827
     6  C   -0.066557
     7  H    0.085729
     8  H    0.081706
     9  H    0.069363
    10  H    0.087499
    11  H    0.074697
    12  H    0.082916
 Sum of Mulliken charges =  -0.00000

 Dipole moment (field-independent basis, Debye):
    X=             -0.1193    Y=             -0.0396    Z=              0.0779  Tot=              0.1479
 Quadrupole moment (field-independent basis, Debye-Ang):
   XX=            -31.2461   YY=            -32.5655   ZZ=            -38.2710
   XY=             -0.3481   XZ=              0.0491   YZ=              0.0479

 Normal termination of Gaussian 16 at Fri Nov 10 16:54:09 2023.
