 Gaussian 16, Revision B.01,
 Gaussian 16:  EM64L-G16RevB.01 20-Dec-2017

 ---------------------------------
 # TD=(NStates=1) B3LYP/6-31G(d,p)
 ---------------------------------

 -------
 ABSSPCT
 -------
 Symbolic Z-matrix:
 Charge =  0 Multiplicity = 1

                         Standard orientation:
 ---------------------------------------------------------------------
 Center     Atomic      Atomic             Coordinates (Angstroms)
 Number     Number       Type             X           Y           Z
 ---------------------------------------------------------------------
      1          6           0       -1.358522   -0.454797    0.009352
      2          6           0       -0.304719   -1.321176   -0.034876
      3          6           0        1.046386   -0.940745   -0.001875
      4          6           0        1.323577    0.417440   -0.029560
      5          6           0        0.330379    1.351425   -0.034201
      6          6           0       -1.031680    0.941393    0.025182
      7          1           0       -2.422158   -0.718270   -0.149706
      8          1           0       -1.720726    1.784783    0.111008
      9          1           0        0.410163    2.393120    0.070950
     10          1           0        2.403589    0.711744    0.095074
     11          1           0        1.826568   -1.669445    0.083069
     12          1           0       -0.529963   -2.463170    0.185468
 ---------------------------------------------------------------------

 SCF Done:  E(RB3LYP) =  -232.234854279     A.U. after   13 cycles

 Excitation energies and oscillator strengths:

 Excited State   1:      Singlet-A      5.4543 eV  227.32 nm  f=0.0004  <S**2>=0.000
      20 -> 22         0.48658
      20 -> 23        -0.10733
      21 -> 22        -0.14115
      21 -> 23        -0.48097
 This state for optimization and/or second-order correction.
 Total Energy, E(TD-HF/TD-DFT) =  -232.034413001
 Copying the excited state density for this state as the 1-particle RhoCI density.

 The electronic state is 1-A.
 Alpha  occ. eigenvalues --  -10.19561 -10.19377 -10.19274 -10.19034 -10.18803
 Alpha  occ. eigenvalues --  -10.18272  -0.84903  -0.74421  -0.73789  -0.60157
 Alpha  occ. eigenvalues --   -0.59152  -0.51620  -0.45438  -0.44359  -0.41829
 Alpha  occ. eigenvalues --   -0.40716  -0.36213  -0.34813  -0.32176  -0.25215
 Alpha  occ. eigenvalues --   -0.24289
 Alpha virt. eigenvalues --   -0.00567   0.00417   0.08181   0.13293   0.14054
 Alpha virt. eigenvalues --    0.15755   0.16554   0.18469   0.19727   0.28300
 Alpha virt. eigenvalues --    0.29858   0.30877   0.33916   0.46151   0.51616

 Mulliken charges:
               1
     1  C   -0.080520
     2  C   -0.096110
     3  C   -0.072154
     4  C   -0.088915
     5  C   -0.066554
     6  C   -0.103105
     7  H    0.094714
     8  H    0.084921
     9  H    0.084129
    10  H    0.080175
    11  H    0.091589
    12  H    0.071830
 Sum of Mulliken charges =   0.00000

 Dipole moment (field-independent basis, Debye):
    X=              0.0125    Y=              0.1534    Z=              0.2196  Tot=              0.2682
 Quadrupole moment (field-independent basis, Debye-Ang):
   XX=            -31.7027   YY=            -31.8181   ZZ=            -38.5300
   XY=             -0.6301   XZ=              0.4241   YZ=             -0.0179

 Normal termination of Gaussian 16 at Fri Nov 10 17:19:13 2023.
