 Gaussian 16, Revision B.01,
 Gaussian 16:  EM64L-G16RevB.01 20-Dec-2017

 ---------------------------------
 # TD=(NStates=1) B3LYP/6-31G(d,p)
 ---------------------------------

 -------
 ABSSPCT
 -------
 Symbolic Z-matrix:
 Charge =  0 Multiplicity = 1

                         Standard orientation:
 ---------------------------------------------------------------------
 Center     Atomic      Atomic             Coordinates (Angstroms)
 Number     Number       Type             X           Y           Z
 ---------------------------------------------------------------------
      1          6           0        1.336846    0.397747    0.024278
      2          6           0        0.287866    1.339622   -0.052375
      3          6           0       -1.080006    0.891875    0.014394
      4          6           0       -1.306451   -0.438249   -0.001828
      5          6           0       -0.313533   -1.325805   -0.032148
      6          6           0        1.100710   -0.927744   -0.002019
      7          1           0        2.262583    0.819646    0.062675
      8          1           0        1.789550   -1.587188   -0.054212
      9          1           0       -0.610984   -2.379616    0.245076
     10          1           0       -2.347115   -0.661386   -0.164396
     11          1           0       -1.795714    1.639725    0.199660
     12          1           0        0.549085    2.544146    0.009387
 ---------------------------------------------------------------------

 SCF Done:  E(RB3LYP) =  -232.199714277     A.U. after   13 cycles

 Excitation energies and oscillator strengths:

 Excited State   1:      Singlet-A      5.4245 eV  228.56 nm  f=0.0013  <S**2>=0.000
      20 -> 22         0.50305
      21 -> 22         0.11345
      21 -> 23         0.47998
 This state for optimization and/or second-order correction.
 Total Energy, E(TD-HF/TD-DFT) =  -232.000368286
 Copying the excited state density for this state as the 1-particle RhoCI density.

 The electronic state is 1-A.
 Alpha  occ. eigenvalues --  -10.20164 -10.19015 -10.18313 -10.18029 -10.17900
 Alpha  occ. eigenvalues --  -10.17648  -0.85251  -0.76003  -0.72911  -0.61449
 Alpha  occ. eigenvalues --   -0.59110  -0.52117  -0.46872  -0.43963  -0.43424
 Alpha  occ. eigenvalues --   -0.39443  -0.36442  -0.35096  -0.32289  -0.25748
 Alpha  occ. eigenvalues --   -0.23520
 Alpha virt. eigenvalues --   -0.01277   0.01209   0.08511   0.12475   0.15640
 Alpha virt. eigenvalues --    0.16382   0.17773   0.19021   0.19690   0.27691
 Alpha virt. eigenvalues --    0.30393   0.31723   0.33848   0.46588   0.50921

 Mulliken charges:
               1
     1  C   -0.061674
     2  C   -0.100988
     3  C   -0.082134
     4  C   -0.061342
     5  C   -0.115949
     6  C   -0.056081
     7  H    0.079312
     8  H    0.072109
     9  H    0.082737
    10  H    0.086428
    11  H    0.088372
    12  H    0.069210
 Sum of Mulliken charges =  -0.00000

 Dipole moment (field-independent basis, Debye):
    X=              0.0332    Y=              0.0433    Z=              0.1881  Tot=              0.1958
 Quadrupole moment (field-independent basis, Debye-Ang):
   XX=            -31.3250   YY=            -32.1425   ZZ=            -38.2049
   XY=             -0.3372   XZ=             -0.0633   YZ=              0.0365

 Normal termination of Gaussian 16 at Fri Nov 10 16:01:52 2023.
