 Gaussian 16, Revision B.01,
 Gaussian 16:  EM64L-G16RevB.01 20-Dec-2017

 ---------------------------------
 # TD=(NStates=1) B3LYP/6-31G(d,p)
 ---------------------------------

 -------
 ABSSPCT
 -------
 Symbolic Z-matrix:
 Charge =  0 Multiplicity = 1

                         Standard orientation:
 ---------------------------------------------------------------------
 Center     Atomic      Atomic             Coordinates (Angstroms)
 Number     Number       Type             X           Y           Z
 ---------------------------------------------------------------------
      1          6           0        1.062572    0.978309    0.002854
      2          6           0       -0.333948    1.312142   -0.037800
      3          6           0       -1.367497    0.359007    0.002147
      4          6           0       -1.006646   -0.955426    0.023193
      5          6           0        0.330521   -1.287982   -0.037143
      6          6           0        1.361123   -0.396505   -0.063076
      7          1           0        1.790075    1.741745    0.263309
      8          1           0        2.502207   -0.828306    0.127242
      9          1           0        0.443680   -2.350341    0.083120
     10          1           0       -1.725215   -1.723299    0.190800
     11          1           0       -2.489353    0.673818   -0.089114
     12          1           0       -0.798145    2.429117    0.083597
 ---------------------------------------------------------------------

 SCF Done:  E(RB3LYP) =  -232.216646563     A.U. after   13 cycles

 Excitation energies and oscillator strengths:

 Excited State   1:      Singlet-A      5.4702 eV  226.66 nm  f=0.0027  <S**2>=0.000
      20 -> 22        -0.32987
      20 -> 23         0.32149
      21 -> 22         0.40639
      21 -> 23         0.34961
 This state for optimization and/or second-order correction.
 Total Energy, E(TD-HF/TD-DFT) =  -232.015621450
 Copying the excited state density for this state as the 1-particle RhoCI density.

 The electronic state is 1-A.
 Alpha  occ. eigenvalues --  -10.20503 -10.20473 -10.20066 -10.19423 -10.18192
 Alpha  occ. eigenvalues --  -10.18098  -0.85241  -0.74586  -0.73521  -0.60080
 Alpha  occ. eigenvalues --   -0.58725  -0.51109  -0.44901  -0.44259  -0.41568
 Alpha  occ. eigenvalues --   -0.39908  -0.36539  -0.34043  -0.32451  -0.25362
 Alpha  occ. eigenvalues --   -0.24453
 Alpha virt. eigenvalues --   -0.00453   0.00202   0.06646   0.11233   0.13508
 Alpha virt. eigenvalues --    0.14636   0.16458   0.17372   0.19942   0.28427
 Alpha virt. eigenvalues --    0.29954   0.31964   0.32994   0.46554   0.52066

 Mulliken charges:
               1
     1  C   -0.097399
     2  C   -0.096003
     3  C   -0.079717
     4  C   -0.072855
     5  C   -0.068321
     6  C   -0.090511
     7  H    0.100540
     8  H    0.079553
     9  H    0.080881
    10  H    0.085178
    11  H    0.086222
    12  H    0.072434
 Sum of Mulliken charges =  -0.00000

 Dipole moment (field-independent basis, Debye):
    X=             -0.1318    Y=             -0.1623    Z=              0.4000  Tot=              0.4514
 Quadrupole moment (field-independent basis, Debye-Ang):
   XX=            -31.6286   YY=            -32.2816   ZZ=            -38.6450
   XY=              0.2656   XZ=              0.5520   YZ=              0.0096

 Normal termination of Gaussian 16 at Fri Nov 10 18:13:36 2023.
