 Gaussian 16, Revision B.01,
 Gaussian 16:  EM64L-G16RevB.01 20-Dec-2017

 ---------------------------------
 # TD=(NStates=1) B3LYP/6-31G(d,p)
 ---------------------------------

 -------
 ABSSPCT
 -------
 Symbolic Z-matrix:
 Charge =  0 Multiplicity = 1

                         Standard orientation:
 ---------------------------------------------------------------------
 Center     Atomic      Atomic             Coordinates (Angstroms)
 Number     Number       Type             X           Y           Z
 ---------------------------------------------------------------------
      1          6           0       -0.388038   -1.328131   -0.004522
      2          6           0       -1.376504   -0.302468    0.005248
      3          6           0       -0.965697    0.973150   -0.034489
      4          6           0        0.418886    1.356690   -0.020451
      5          6           0        1.361420    0.312353    0.017491
      6          6           0        0.989757   -1.033747    0.019904
      7          1           0       -0.780358   -2.410248   -0.090300
      8          1           0        1.735325   -1.636764    0.042410
      9          1           0        2.425523    0.344861   -0.042803
     10          1           0        0.702294    2.627293   -0.027063
     11          1           0       -1.742774    1.935806    0.198525
     12          1           0       -2.578953   -0.728029    0.020140
 ---------------------------------------------------------------------

 SCF Done:  E(RB3LYP) =  -232.172844615     A.U. after   13 cycles

 Excitation energies and oscillator strengths:

 Excited State   1:      Singlet-A      5.4639 eV  226.92 nm  f=0.0003  <S**2>=0.000
      20 -> 22        -0.49124
      21 -> 23         0.49889
 This state for optimization and/or second-order correction.
 Total Energy, E(TD-HF/TD-DFT) =  -231.972051286
 Copying the excited state density for this state as the 1-particle RhoCI density.

 The electronic state is 1-A.
 Alpha  occ. eigenvalues --  -10.21752 -10.20814 -10.20723 -10.20212 -10.19103
 Alpha  occ. eigenvalues --  -10.18093  -0.84913  -0.75252  -0.72802  -0.60313
 Alpha  occ. eigenvalues --   -0.58664  -0.50720  -0.44628  -0.44061  -0.41005
 Alpha  occ. eigenvalues --   -0.39851  -0.36423  -0.32974  -0.32538  -0.25700
 Alpha  occ. eigenvalues --   -0.24372
 Alpha virt. eigenvalues --   -0.00982   0.00309   0.04433   0.09564   0.12791
 Alpha virt. eigenvalues --    0.13545   0.15716   0.15915   0.20852   0.27589
 Alpha virt. eigenvalues --    0.28702   0.32027   0.32953   0.45893   0.50853

 Mulliken charges:
               1
     1  C   -0.101111
     2  C   -0.061679
     3  C   -0.091823
     4  C   -0.082428
     5  C   -0.092428
     6  C   -0.038848
     7  H    0.081034
     8  H    0.072078
     9  H    0.084138
    10  H    0.078779
    11  H    0.071078
    12  H    0.081210
 Sum of Mulliken charges =  -0.00000

 Dipole moment (field-independent basis, Debye):
    X=              0.2527    Y=             -0.2526    Z=              0.0461  Tot=              0.3603
 Quadrupole moment (field-independent basis, Debye-Ang):
   XX=            -31.7543   YY=            -32.1509   ZZ=            -38.9979
   XY=             -0.1540   XZ=             -0.2635   YZ=              0.3328

 Normal termination of Gaussian 16 at Fri Nov 10 18:34:51 2023.
