 Gaussian 16, Revision B.01,
 Gaussian 16:  EM64L-G16RevB.01 20-Dec-2017

 ---------------------------------
 # TD=(NStates=1) B3LYP/6-31G(d,p)
 ---------------------------------

 -------
 ABSSPCT
 -------
 Symbolic Z-matrix:
 Charge =  0 Multiplicity = 1

                         Standard orientation:
 ---------------------------------------------------------------------
 Center     Atomic      Atomic             Coordinates (Angstroms)
 Number     Number       Type             X           Y           Z
 ---------------------------------------------------------------------
      1          6           0       -1.270069    0.676663    0.001527
      2          6           0       -1.266139   -0.668919   -0.061083
      3          6           0       -0.024447   -1.342234    0.020237
      4          6           0        1.255054   -0.711615   -0.037210
      5          6           0        1.245448    0.684740    0.013643
      6          6           0        0.056016    1.399772    0.001460
      7          1           0       -2.225894    1.238740    0.148079
      8          1           0        0.085991    2.540476    0.035999
      9          1           0        2.232647    1.096797    0.007240
     10          1           0        2.242609   -1.420147   -0.051199
     11          1           0       -0.099934   -2.475396    0.311978
     12          1           0       -2.210591   -1.210913   -0.083543
 ---------------------------------------------------------------------

 SCF Done:  E(RB3LYP) =  -232.220211085     A.U. after   13 cycles

 Excitation energies and oscillator strengths:

 Excited State   1:      Singlet-A      5.3063 eV  233.66 nm  f=0.0024  <S**2>=0.000
      20 -> 22        -0.46216
      21 -> 22         0.10797
      21 -> 23         0.52150
 This state for optimization and/or second-order correction.
 Total Energy, E(TD-HF/TD-DFT) =  -232.025208813
 Copying the excited state density for this state as the 1-particle RhoCI density.

 The electronic state is 1-A.
 Alpha  occ. eigenvalues --  -10.20481 -10.20428 -10.20000 -10.19994 -10.19094
 Alpha  occ. eigenvalues --  -10.18911  -0.84128  -0.75102  -0.71938  -0.59683
 Alpha  occ. eigenvalues --   -0.58575  -0.50549  -0.45439  -0.43344  -0.42398
 Alpha  occ. eigenvalues --   -0.39424  -0.35791  -0.34219  -0.32787  -0.25750
 Alpha  occ. eigenvalues --   -0.23205
 Alpha virt. eigenvalues --   -0.01302   0.00646   0.07168   0.12196   0.13294
 Alpha virt. eigenvalues --    0.15047   0.15690   0.17177   0.18007   0.26605
 Alpha virt. eigenvalues --    0.29451   0.31174   0.32401   0.46451   0.49692

 Mulliken charges:
               1
     1  C   -0.095249
     2  C   -0.065658
     3  C   -0.096455
     4  C   -0.089206
     5  C   -0.074537
     6  C   -0.104751
     7  H    0.091254
     8  H    0.087595
     9  H    0.089419
    10  H    0.089795
    11  H    0.076083
    12  H    0.091709
 Sum of Mulliken charges =  -0.00000

 Dipole moment (field-independent basis, Debye):
    X=             -0.0748    Y=             -0.0057    Z=              0.2050  Tot=              0.2183
 Quadrupole moment (field-independent basis, Debye-Ang):
   XX=            -30.8835   YY=            -32.4196   ZZ=            -38.9032
   XY=             -0.0617   XZ=             -0.2286   YZ=             -0.1988

 Normal termination of Gaussian 16 at Fri Nov 10 17:46:34 2023.
