 Gaussian 16, Revision B.01,
 Gaussian 16:  EM64L-G16RevB.01 20-Dec-2017

 ---------------------------------
 # TD=(NStates=1) B3LYP/6-31G(d,p)
 ---------------------------------

 -------
 ABSSPCT
 -------
 Symbolic Z-matrix:
 Charge =  0 Multiplicity = 1

                         Standard orientation:
 ---------------------------------------------------------------------
 Center     Atomic      Atomic             Coordinates (Angstroms)
 Number     Number       Type             X           Y           Z
 ---------------------------------------------------------------------
      1          6           0        0.560336   -1.141575    0.136950
      2          6           0       -0.794673   -1.190563   -0.051198
      3          6           0       -1.392884    0.089066   -0.002681
      4          6           0       -0.599437    1.252081    0.009810
      5          6           0        0.804303    1.143981   -0.030854
      6          6           0        1.433785   -0.132589   -0.060859
      7          1           0        1.002649   -2.270715    0.103133
      8          1           0        2.603824   -0.472642   -0.127301
      9          1           0        1.341438    2.118324    0.036134
     10          1           0       -1.194110    2.197739    0.218693
     11          1           0       -2.348216    0.205712   -0.081415
     12          1           0       -1.474171   -1.900819   -0.156247
 ---------------------------------------------------------------------

 SCF Done:  E(RB3LYP) =  -232.185082787     A.U. after   13 cycles

 Excitation energies and oscillator strengths:

 Excited State   1:      Singlet-A      5.4165 eV  228.90 nm  f=0.0010  <S**2>=0.000
      20 -> 22         0.50818
      21 -> 22         0.12231
      21 -> 23         0.46633
 This state for optimization and/or second-order correction.
 Total Energy, E(TD-HF/TD-DFT) =  -231.986028995
 Copying the excited state density for this state as the 1-particle RhoCI density.

 The electronic state is 1-A.
 Alpha  occ. eigenvalues --  -10.20615 -10.20064 -10.19308 -10.19220 -10.17945
 Alpha  occ. eigenvalues --  -10.17381  -0.85308  -0.74852  -0.73826  -0.61079
 Alpha  occ. eigenvalues --   -0.58854  -0.51713  -0.46784  -0.43845  -0.42172
 Alpha  occ. eigenvalues --   -0.39936  -0.36386  -0.34683  -0.31079  -0.24923
 Alpha  occ. eigenvalues --   -0.24535
 Alpha virt. eigenvalues --   -0.00746   0.00409   0.06627   0.12744   0.14272
 Alpha virt. eigenvalues --    0.14825   0.15843   0.17704   0.21423   0.28725
 Alpha virt. eigenvalues --    0.29058   0.31389   0.34349   0.45096   0.48017

 Mulliken charges:
               1
     1  C   -0.090931
     2  C   -0.034665
     3  C   -0.077291
     4  C   -0.079630
     5  C   -0.116270
     6  C   -0.072267
     7  H    0.047467
     8  H    0.100683
     9  H    0.086526
    10  H    0.085865
    11  H    0.066355
    12  H    0.084157
 Sum of Mulliken charges =  -0.00000

 Dipole moment (field-independent basis, Debye):
    X=             -0.3000    Y=              0.0213    Z=             -0.0354  Tot=              0.3028
 Quadrupole moment (field-independent basis, Debye-Ang):
   XX=            -31.0792   YY=            -32.6105   ZZ=            -38.4880
   XY=              0.1262   XZ=             -0.0536   YZ=              0.6751

 Normal termination of Gaussian 16 at Fri Nov 10 19:20:10 2023.
