 Gaussian 16, Revision B.01,
 Gaussian 16:  EM64L-G16RevB.01 20-Dec-2017

 ---------------------------------
 # TD=(NStates=1) B3LYP/6-31G(d,p)
 ---------------------------------

 -------
 ABSSPCT
 -------
 Symbolic Z-matrix:
 Charge =  0 Multiplicity = 1

                         Standard orientation:
 ---------------------------------------------------------------------
 Center     Atomic      Atomic             Coordinates (Angstroms)
 Number     Number       Type             X           Y           Z
 ---------------------------------------------------------------------
      1          6           0       -0.343027   -1.311189    0.011533
      2          6           0       -1.463811   -0.382853   -0.053656
      3          6           0       -0.968365    1.002715    0.038507
      4          6           0        0.352415    1.257899   -0.026140
      5          6           0        1.409209    0.342728    0.027679
      6          6           0        0.996223   -0.948239   -0.012828
      7          1           0       -0.567015   -2.323699    0.128065
      8          1           0        1.818055   -1.646375   -0.071946
      9          1           0        2.487516    0.691488    0.037496
     10          1           0        0.454814    2.382341   -0.112598
     11          1           0       -1.614599    1.794247    0.120672
     12          1           0       -2.474629   -0.664369   -0.012256
 ---------------------------------------------------------------------

 SCF Done:  E(RB3LYP) =  -232.220281929     A.U. after   14 cycles

 Excitation energies and oscillator strengths:

 Excited State   1:      Singlet-A      5.2861 eV  234.55 nm  f=0.0109  <S**2>=0.000
      20 -> 22        -0.40147
      20 -> 23        -0.25298
      21 -> 22         0.43594
      21 -> 23        -0.28841
 This state for optimization and/or second-order correction.
 Total Energy, E(TD-HF/TD-DFT) =  -232.026020155
 Copying the excited state density for this state as the 1-particle RhoCI density.

 The electronic state is 1-A.
 Alpha  occ. eigenvalues --  -10.19948 -10.19172 -10.18838 -10.18376 -10.18304
 Alpha  occ. eigenvalues --  -10.18195  -0.84761  -0.74726  -0.73418  -0.60891
 Alpha  occ. eigenvalues --   -0.58919  -0.51958  -0.46656  -0.44075  -0.42090
 Alpha  occ. eigenvalues --   -0.40217  -0.36045  -0.35428  -0.32072  -0.24729
 Alpha  occ. eigenvalues --   -0.24013
 Alpha virt. eigenvalues --   -0.01252   0.01208   0.08798   0.14328   0.14658
 Alpha virt. eigenvalues --    0.15628   0.17713   0.18176   0.19998   0.28455
 Alpha virt. eigenvalues --    0.29152   0.30815   0.33170   0.46906   0.51111

 Mulliken charges:
               1
     1  C   -0.095735
     2  C   -0.091296
     3  C   -0.082860
     4  C   -0.073477
     5  C   -0.081870
     6  C   -0.077440
     7  H    0.080384
     8  H    0.082896
     9  H    0.095225
    10  H    0.068310
    11  H    0.080874
    12  H    0.094988
 Sum of Mulliken charges =  -0.00000

 Dipole moment (field-independent basis, Debye):
    X=             -0.0488    Y=             -0.0033    Z=              0.0656  Tot=              0.0818
 Quadrupole moment (field-independent basis, Debye-Ang):
   XX=            -30.6210   YY=            -32.3514   ZZ=            -38.4745
   XY=             -0.1106   XZ=             -0.2651   YZ=             -0.1443

 Normal termination of Gaussian 16 at Fri Nov 10 17:15:45 2023.
