 Gaussian 16, Revision B.01,
 Gaussian 16:  EM64L-G16RevB.01 20-Dec-2017

 ---------------------------------
 # TD=(NStates=1) B3LYP/6-31G(d,p)
 ---------------------------------

 -------
 ABSSPCT
 -------
 Symbolic Z-matrix:
 Charge =  0 Multiplicity = 1

                         Standard orientation:
 ---------------------------------------------------------------------
 Center     Atomic      Atomic             Coordinates (Angstroms)
 Number     Number       Type             X           Y           Z
 ---------------------------------------------------------------------
      1          6           0       -1.278292   -0.565346    0.006815
      2          6           0       -1.179582    0.807599    0.037821
      3          6           0        0.151095    1.382245   -0.011552
      4          6           0        1.295827    0.541968   -0.055400
      5          6           0        1.091841   -0.811926    0.049200
      6          6           0       -0.108895   -1.320399   -0.019254
      7          1           0       -2.100499   -1.264839    0.053605
      8          1           0       -0.131470   -2.519479   -0.105126
      9          1           0        1.999577   -1.274866   -0.030649
     10          1           0        2.290087    1.025036    0.164452
     11          1           0        0.162570    2.456854   -0.023977
     12          1           0       -2.052226    1.372446   -0.104084
 ---------------------------------------------------------------------

 SCF Done:  E(RB3LYP) =  -232.213765721     A.U. after   13 cycles

 Excitation energies and oscillator strengths:

 Excited State   1:      Singlet-A      5.5238 eV  224.45 nm  f=0.0021  <S**2>=0.000
      20 -> 22        -0.40146
      20 -> 23        -0.24322
      21 -> 22        -0.32342
      21 -> 23         0.41785
 This state for optimization and/or second-order correction.
 Total Energy, E(TD-HF/TD-DFT) =  -232.010770005
 Copying the excited state density for this state as the 1-particle RhoCI density.

 The electronic state is 1-A.
 Alpha  occ. eigenvalues --  -10.19366 -10.19083 -10.19029 -10.18712 -10.18600
 Alpha  occ. eigenvalues --  -10.16936  -0.85594  -0.75244  -0.73622  -0.60482
 Alpha  occ. eigenvalues --   -0.59875  -0.52177  -0.46686  -0.43124  -0.42207
 Alpha  occ. eigenvalues --   -0.40512  -0.36963  -0.33446  -0.32840  -0.25456
 Alpha  occ. eigenvalues --   -0.24435
 Alpha virt. eigenvalues --   -0.00341   0.00363   0.08415   0.13260   0.14519
 Alpha virt. eigenvalues --    0.16510   0.17520   0.17963   0.19484   0.28991
 Alpha virt. eigenvalues --    0.30009   0.31415   0.34319   0.44812   0.52165

 Mulliken charges:
               1
     1  C   -0.067717
     2  C   -0.099735
     3  C   -0.096726
     4  C   -0.103334
     5  C   -0.048118
     6  C   -0.087420
     7  H    0.090947
     8  H    0.066669
     9  H    0.081914
    10  H    0.087175
    11  H    0.085301
    12  H    0.091044
 Sum of Mulliken charges =  -0.00000

 Dipole moment (field-independent basis, Debye):
    X=              0.0123    Y=              0.0403    Z=             -0.0109  Tot=              0.0436
 Quadrupole moment (field-independent basis, Debye-Ang):
   XX=            -31.6175   YY=            -32.0270   ZZ=            -38.3315
   XY=             -0.0128   XZ=              0.3609   YZ=              0.1235

 Normal termination of Gaussian 16 at Fri Nov 10 19:01:47 2023.
