 Gaussian 16, Revision B.01,
 Gaussian 16:  EM64L-G16RevB.01 20-Dec-2017

 ---------------------------------
 # TD=(NStates=1) B3LYP/6-31G(d,p)
 ---------------------------------

 -------
 ABSSPCT
 -------
 Symbolic Z-matrix:
 Charge =  0 Multiplicity = 1

                         Standard orientation:
 ---------------------------------------------------------------------
 Center     Atomic      Atomic             Coordinates (Angstroms)
 Number     Number       Type             X           Y           Z
 ---------------------------------------------------------------------
      1          6           0        0.947530   -1.039141    0.033254
      2          6           0        1.384622    0.302019    0.040872
      3          6           0        0.469560    1.304498   -0.008271
      4          6           0       -0.975911    1.053189   -0.026298
      5          6           0       -1.404277   -0.343190    0.050935
      6          6           0       -0.400367   -1.292448   -0.084826
      7          1           0        1.719595   -1.756845    0.022144
      8          1           0       -0.747915   -2.336097   -0.054044
      9          1           0       -2.549517   -0.577775    0.149184
     10          1           0       -1.721863    1.878166   -0.045352
     11          1           0        0.737070    2.409811   -0.028181
     12          1           0        2.435683    0.473178   -0.077749
 ---------------------------------------------------------------------

 SCF Done:  E(RB3LYP) =  -232.232583723     A.U. after   13 cycles

 Excitation energies and oscillator strengths:

 Excited State   1:      Singlet-A      5.3391 eV  232.22 nm  f=0.0009  <S**2>=0.000
      20 -> 22         0.50623
      21 -> 22         0.12161
      21 -> 23         0.47077
 This state for optimization and/or second-order correction.
 Total Energy, E(TD-HF/TD-DFT) =  -232.036373748
 Copying the excited state density for this state as the 1-particle RhoCI density.

 The electronic state is 1-A.
 Alpha  occ. eigenvalues --  -10.20429 -10.20325 -10.19625 -10.18852 -10.18619
 Alpha  occ. eigenvalues --  -10.18523  -0.84303  -0.74191  -0.73077  -0.60003
 Alpha  occ. eigenvalues --   -0.58801  -0.51223  -0.45766  -0.44012  -0.41250
 Alpha  occ. eigenvalues --   -0.40620  -0.35702  -0.35385  -0.32082  -0.25071
 Alpha  occ. eigenvalues --   -0.23925
 Alpha virt. eigenvalues --   -0.01070   0.00556   0.08183   0.12976   0.14307
 Alpha virt. eigenvalues --    0.15017   0.16866   0.17312   0.19285   0.27968
 Alpha virt. eigenvalues --    0.28921   0.30056   0.33544   0.46919   0.50938

 Mulliken charges:
               1
     1  C   -0.075823
     2  C   -0.078783
     3  C   -0.086128
     4  C   -0.103826
     5  C   -0.089320
     6  C   -0.085777
     7  H    0.088256
     8  H    0.078406
     9  H    0.091638
    10  H    0.091629
    11  H    0.081517
    12  H    0.088212
 Sum of Mulliken charges =  -0.00000

 Dipole moment (field-independent basis, Debye):
    X=              0.0282    Y=             -0.0053    Z=             -0.0205  Tot=              0.0352
 Quadrupole moment (field-independent basis, Debye-Ang):
   XX=            -30.9269   YY=            -32.1539   ZZ=            -38.7859
   XY=             -0.4606   XZ=             -0.3664   YZ=             -0.1682

 Normal termination of Gaussian 16 at Fri Nov 10 19:08:08 2023.
