 Gaussian 16, Revision B.01,
 Gaussian 16:  EM64L-G16RevB.01 20-Dec-2017

 ---------------------------------
 # TD=(NStates=1) B3LYP/6-31G(d,p)
 ---------------------------------

 -------
 ABSSPCT
 -------
 Symbolic Z-matrix:
 Charge =  0 Multiplicity = 1

                         Standard orientation:
 ---------------------------------------------------------------------
 Center     Atomic      Atomic             Coordinates (Angstroms)
 Number     Number       Type             X           Y           Z
 ---------------------------------------------------------------------
      1          6           0        0.727292   -1.178513    0.016180
      2          6           0       -0.676197   -1.198908   -0.105458
      3          6           0       -1.441965   -0.100434    0.018268
      4          6           0       -0.730964    1.128444    0.015069
      5          6           0        0.669790    1.265243   -0.016003
      6          6           0        1.424300    0.026121    0.014892
      7          1           0        1.503001   -2.061370    0.257189
      8          1           0        2.503853    0.253236    0.028179
      9          1           0        1.065723    2.137531   -0.254584
     10          1           0       -1.384514    2.265068    0.217417
     11          1           0       -2.592918   -0.172456    0.080911
     12          1           0       -0.928684   -2.073724    0.013199
 ---------------------------------------------------------------------

 SCF Done:  E(RB3LYP) =  -232.160113635     A.U. after   13 cycles

 Excitation energies and oscillator strengths:

 Excited State   1:      Singlet-A      5.3364 eV  232.34 nm  f=0.0029  <S**2>=0.000
      20 -> 22        -0.30198
      20 -> 23        -0.35470
      21 -> 22         0.44128
      21 -> 23        -0.29621
 This state for optimization and/or second-order correction.
 Total Energy, E(TD-HF/TD-DFT) =  -231.964005244
 Copying the excited state density for this state as the 1-particle RhoCI density.

 The electronic state is 1-A.
 Alpha  occ. eigenvalues --  -10.21168 -10.20137 -10.20035 -10.19397 -10.18461
 Alpha  occ. eigenvalues --  -10.17485  -0.84982  -0.75252  -0.73220  -0.61643
 Alpha  occ. eigenvalues --   -0.58701  -0.50985  -0.47473  -0.43964  -0.42327
 Alpha  occ. eigenvalues --   -0.38693  -0.36171  -0.34672  -0.31460  -0.25131
 Alpha  occ. eigenvalues --   -0.24386
 Alpha virt. eigenvalues --   -0.00853  -0.00128   0.06802   0.10491   0.13559
 Alpha virt. eigenvalues --    0.14926   0.15357   0.19175   0.19566   0.27871
 Alpha virt. eigenvalues --    0.29460   0.31796   0.32507   0.45546   0.49591

 Mulliken charges:
               1
     1  C   -0.111826
     2  C   -0.044305
     3  C   -0.079176
     4  C   -0.087868
     5  C   -0.065643
     6  C   -0.087494
     7  H    0.087172
     8  H    0.088682
     9  H    0.088819
    10  H    0.042863
    11  H    0.097947
    12  H    0.070829
 Sum of Mulliken charges =  -0.00000

 Dipole moment (field-independent basis, Debye):
    X=              0.1584    Y=             -0.1414    Z=              0.1382  Tot=              0.2534
 Quadrupole moment (field-independent basis, Debye-Ang):
   XX=            -31.4502   YY=            -32.4309   ZZ=            -38.5586
   XY=              0.8414   XZ=             -0.2290   YZ=             -0.6318

 Normal termination of Gaussian 16 at Fri Nov 10 16:41:26 2023.
