 Gaussian 16, Revision B.01,
 Gaussian 16:  EM64L-G16RevB.01 20-Dec-2017

 ---------------------------------
 # TD=(NStates=1) B3LYP/6-31G(d,p)
 ---------------------------------

 -------
 ABSSPCT
 -------
 Symbolic Z-matrix:
 Charge =  0 Multiplicity = 1

                         Standard orientation:
 ---------------------------------------------------------------------
 Center     Atomic      Atomic             Coordinates (Angstroms)
 Number     Number       Type             X           Y           Z
 ---------------------------------------------------------------------
      1          6           0        0.137155   -1.309151   -0.083248
      2          6           0       -1.122224   -0.867936   -0.006047
      3          6           0       -1.288982    0.560932    0.011998
      4          6           0       -0.185788    1.315487    0.013118
      5          6           0        1.103113    0.804714   -0.060089
      6          6           0        1.322480   -0.524247    0.071817
      7          1           0        0.519829   -2.330789   -0.096115
      8          1           0        2.239702   -0.952869    0.283446
      9          1           0        1.892602    1.565440   -0.057677
     10          1           0       -0.234421    2.388384   -0.063017
     11          1           0       -2.248769    0.923469    0.141429
     12          1           0       -1.963465   -1.472431    0.106643
 ---------------------------------------------------------------------

 SCF Done:  E(RB3LYP) =  -232.223785638     A.U. after   13 cycles

 Excitation energies and oscillator strengths:

 Excited State   1:      Singlet-A      5.5711 eV  222.55 nm  f=0.0021  <S**2>=0.000
      20 -> 22         0.51426
      20 -> 23        -0.14226
      21 -> 22        -0.17023
      21 -> 23        -0.43084
 This state for optimization and/or second-order correction.
 Total Energy, E(TD-HF/TD-DFT) =  -232.019050114
 Copying the excited state density for this state as the 1-particle RhoCI density.

 The electronic state is 1-A.
 Alpha  occ. eigenvalues --  -10.18258 -10.18175 -10.18069 -10.17990 -10.17874
 Alpha  occ. eigenvalues --  -10.17515  -0.85638  -0.74884  -0.74381  -0.61002
 Alpha  occ. eigenvalues --   -0.59542  -0.52741  -0.46696  -0.44358  -0.42785
 Alpha  occ. eigenvalues --   -0.40802  -0.36943  -0.34859  -0.31780  -0.24826
 Alpha  occ. eigenvalues --   -0.24576
 Alpha virt. eigenvalues --   -0.00174   0.01131   0.09789   0.14085   0.15131
 Alpha virt. eigenvalues --    0.16119   0.18728   0.19449   0.20497   0.28439
 Alpha virt. eigenvalues --    0.30388   0.33518   0.34866   0.46053   0.51801

 Mulliken charges:
               1
     1  C   -0.090145
     2  C   -0.075726
     3  C   -0.084474
     4  C   -0.072706
     5  C   -0.078931
     6  C   -0.080529
     7  H    0.072786
     8  H    0.090731
     9  H    0.073816
    10  H    0.076286
    11  H    0.081613
    12  H    0.087279
 Sum of Mulliken charges =  -0.00000

 Dipole moment (field-independent basis, Debye):
    X=              0.0558    Y=             -0.0134    Z=              0.2150  Tot=              0.2226
 Quadrupole moment (field-independent basis, Debye-Ang):
   XX=            -31.0047   YY=            -32.3397   ZZ=            -38.0055
   XY=             -0.2520   XZ=             -0.0095   YZ=             -0.3031

 Normal termination of Gaussian 16 at Fri Nov 10 19:04:11 2023.
