 Gaussian 16, Revision B.01,
 Gaussian 16:  EM64L-G16RevB.01 20-Dec-2017

 ---------------------------------
 # TD=(NStates=1) B3LYP/6-31G(d,p)
 ---------------------------------

 -------
 ABSSPCT
 -------
 Symbolic Z-matrix:
 Charge =  0 Multiplicity = 1

                         Standard orientation:
 ---------------------------------------------------------------------
 Center     Atomic      Atomic             Coordinates (Angstroms)
 Number     Number       Type             X           Y           Z
 ---------------------------------------------------------------------
      1          6           0        1.210346    0.750937   -0.056976
      2          6           0       -0.022772    1.398288    0.005567
      3          6           0       -1.333032    0.621750   -0.017530
      4          6           0       -1.188350   -0.774802    0.017773
      5          6           0        0.068000   -1.319964    0.006988
      6          6           0        1.273145   -0.648837    0.009824
      7          1           0        2.301019    1.312549    0.198468
      8          1           0        2.236737   -1.365307   -0.083220
      9          1           0        0.058762   -2.303473   -0.028600
     10          1           0       -2.096138   -1.420509    0.120435
     11          1           0       -2.374996    1.140521   -0.138998
     12          1           0       -0.169412    2.471989    0.138039
 ---------------------------------------------------------------------

 SCF Done:  E(RB3LYP) =  -232.199095489     A.U. after   14 cycles

 Excitation energies and oscillator strengths:

 Excited State   1:      Singlet-A      5.3079 eV  233.58 nm  f=0.0036  <S**2>=0.000
      20 -> 22        -0.45167
      20 -> 23        -0.14930
      21 -> 22        -0.25853
      21 -> 23         0.45426
 This state for optimization and/or second-order correction.
 Total Energy, E(TD-HF/TD-DFT) =  -232.004033749
 Copying the excited state density for this state as the 1-particle RhoCI density.

 The electronic state is 1-A.
 Alpha  occ. eigenvalues --  -10.21053 -10.20927 -10.20430 -10.20110 -10.19165
 Alpha  occ. eigenvalues --  -10.17224  -0.84420  -0.74301  -0.73047  -0.60071
 Alpha  occ. eigenvalues --   -0.58524  -0.50665  -0.45230  -0.44046  -0.40958
 Alpha  occ. eigenvalues --   -0.40069  -0.36181  -0.34430  -0.31917  -0.25445
 Alpha  occ. eigenvalues --   -0.23919
 Alpha virt. eigenvalues --   -0.01279   0.00223   0.06837   0.11188   0.12304
 Alpha virt. eigenvalues --    0.15252   0.15672   0.16371   0.20186   0.26502
 Alpha virt. eigenvalues --    0.29753   0.30565   0.33168   0.46645   0.49711

 Mulliken charges:
               1
     1  C   -0.092988
     2  C   -0.100840
     3  C   -0.107996
     4  C   -0.077387
     5  C   -0.049576
     6  C   -0.080315
     7  H    0.074367
     8  H    0.088464
     9  H    0.070340
    10  H    0.087439
    11  H    0.094439
    12  H    0.094053
 Sum of Mulliken charges =  -0.00000

 Dipole moment (field-independent basis, Debye):
    X=             -0.2486    Y=             -0.2236    Z=              0.1134  Tot=              0.3531
 Quadrupole moment (field-independent basis, Debye-Ang):
   XX=            -31.5078   YY=            -31.9420   ZZ=            -38.8905
   XY=             -0.5762   XZ=              0.2508   YZ=              0.3814

 Normal termination of Gaussian 16 at Fri Nov 10 17:38:23 2023.
