 Gaussian 16, Revision B.01,
 Gaussian 16:  EM64L-G16RevB.01 20-Dec-2017

 ---------------------------------
 # TD=(NStates=1) B3LYP/6-31G(d,p)
 ---------------------------------

 -------
 ABSSPCT
 -------
 Symbolic Z-matrix:
 Charge =  0 Multiplicity = 1

                         Standard orientation:
 ---------------------------------------------------------------------
 Center     Atomic      Atomic             Coordinates (Angstroms)
 Number     Number       Type             X           Y           Z
 ---------------------------------------------------------------------
      1          6           0        1.397329   -0.284559    0.005997
      2          6           0        0.865437    1.075382   -0.071733
      3          6           0       -0.465894    1.294579    0.039723
      4          6           0       -1.393159    0.239899   -0.061634
      5          6           0       -0.870541   -1.030770   -0.030557
      6          6           0        0.444871   -1.292335    0.038640
      7          1           0        2.449591   -0.356077    0.004492
      8          1           0        0.950062   -2.147990    0.025739
      9          1           0       -1.565419   -1.970314    0.080956
     10          1           0       -2.406422    0.330557    0.106758
     11          1           0       -0.921772    2.198165    0.164197
     12          1           0        1.625709    1.932479    0.095243
 ---------------------------------------------------------------------

 SCF Done:  E(RB3LYP) =  -232.212280931     A.U. after   13 cycles

 Excitation energies and oscillator strengths:

 Excited State   1:      Singlet-A      5.5322 eV  224.11 nm  f=0.0020  <S**2>=0.000
      20 -> 22         0.53481
      21 -> 23        -0.45514
 This state for optimization and/or second-order correction.
 Total Energy, E(TD-HF/TD-DFT) =  -232.008974540
 Copying the excited state density for this state as the 1-particle RhoCI density.

 The electronic state is 1-A.
 Alpha  occ. eigenvalues --  -10.19228 -10.18878 -10.18841 -10.18114 -10.17957
 Alpha  occ. eigenvalues --  -10.17224  -0.85393  -0.75299  -0.73799  -0.60797
 Alpha  occ. eigenvalues --   -0.60005  -0.52000  -0.47708  -0.43964  -0.42006
 Alpha  occ. eigenvalues --   -0.40188  -0.36378  -0.35735  -0.31536  -0.25327
 Alpha  occ. eigenvalues --   -0.24356
 Alpha virt. eigenvalues --   -0.00821   0.01138   0.09125   0.13069   0.15540
 Alpha virt. eigenvalues --    0.16165   0.17540   0.19313   0.20057   0.28407
 Alpha virt. eigenvalues --    0.30672   0.31626   0.34244   0.45502   0.52432

 Mulliken charges:
               1
     1  C   -0.102205
     2  C   -0.095866
     3  C   -0.069187
     4  C   -0.083992
     5  C   -0.089516
     6  C   -0.043452
     7  H    0.092242
     8  H    0.077011
     9  H    0.071808
    10  H    0.087952
    11  H    0.081086
    12  H    0.074122
 Sum of Mulliken charges =  -0.00000

 Dipole moment (field-independent basis, Debye):
    X=              0.0714    Y=             -0.0194    Z=              0.2958  Tot=              0.3049
 Quadrupole moment (field-independent basis, Debye-Ang):
   XX=            -30.9142   YY=            -32.5074   ZZ=            -38.2190
   XY=             -0.5750   XZ=             -0.3061   YZ=              0.3175

 Normal termination of Gaussian 16 at Fri Nov 10 18:41:31 2023.
