 Gaussian 16, Revision B.01,
 Gaussian 16:  EM64L-G16RevB.01 20-Dec-2017

 ---------------------------------
 # TD=(NStates=1) B3LYP/6-31G(d,p)
 ---------------------------------

 -------
 ABSSPCT
 -------
 Symbolic Z-matrix:
 Charge =  0 Multiplicity = 1

                         Standard orientation:
 ---------------------------------------------------------------------
 Center     Atomic      Atomic             Coordinates (Angstroms)
 Number     Number       Type             X           Y           Z
 ---------------------------------------------------------------------
      1          6           0       -1.104556    0.896459    0.011438
      2          6           0        0.288937    1.346172    0.006467
      3          6           0        1.311838    0.504632   -0.098089
      4          6           0        1.059404   -0.879612    0.046108
      5          6           0       -0.225784   -1.411161    0.017804
      6          6           0       -1.322792   -0.470418   -0.071104
      7          1           0       -1.883795    1.709915    0.253785
      8          1           0       -2.401158   -0.792374    0.025122
      9          1           0       -0.531419   -2.422561   -0.067269
     10          1           0        1.964609   -1.678888    0.232521
     11          1           0        2.352958    0.748290    0.006658
     12          1           0        0.456526    2.519187    0.073443
 ---------------------------------------------------------------------

 SCF Done:  E(RB3LYP) =  -232.218503677     A.U. after   13 cycles

 Excitation energies and oscillator strengths:

 Excited State   1:      Singlet-A      5.4141 eV  229.00 nm  f=0.0007  <S**2>=0.000
      20 -> 22        -0.47477
      21 -> 23         0.51629
 This state for optimization and/or second-order correction.
 Total Energy, E(TD-HF/TD-DFT) =  -232.019540722
 Copying the excited state density for this state as the 1-particle RhoCI density.

 The electronic state is 1-A.
 Alpha  occ. eigenvalues --  -10.20478 -10.19984 -10.19940 -10.19740 -10.19322
 Alpha  occ. eigenvalues --  -10.18682  -0.84621  -0.74496  -0.73087  -0.59508
 Alpha  occ. eigenvalues --   -0.58902  -0.51075  -0.45302  -0.43111  -0.41875
 Alpha  occ. eigenvalues --   -0.40552  -0.36220  -0.33258  -0.32831  -0.25337
 Alpha  occ. eigenvalues --   -0.24267
 Alpha virt. eigenvalues --   -0.00571  -0.00017   0.07104   0.11680   0.13260
 Alpha virt. eigenvalues --    0.14827   0.16641   0.17506   0.17884   0.27594
 Alpha virt. eigenvalues --    0.28467   0.31743   0.33542   0.45074   0.51390

 Mulliken charges:
               1
     1  C   -0.081071
     2  C   -0.095274
     3  C   -0.058724
     4  C   -0.104713
     5  C   -0.070727
     6  C   -0.105731
     7  H    0.092333
     8  H    0.084506
     9  H    0.095391
    10  H    0.074984
    11  H    0.092405
    12  H    0.076621
 Sum of Mulliken charges =  -0.00000

 Dipole moment (field-independent basis, Debye):
    X=             -0.0356    Y=             -0.0223    Z=              0.2882  Tot=              0.2913
 Quadrupole moment (field-independent basis, Debye-Ang):
   XX=            -31.8295   YY=            -31.8740   ZZ=            -38.7950
   XY=              0.0326   XZ=             -0.0539   YZ=              0.3604

 Normal termination of Gaussian 16 at Fri Nov 10 17:31:46 2023.
