 Gaussian 16, Revision B.01,
 Gaussian 16:  EM64L-G16RevB.01 20-Dec-2017

 ---------------------------------
 # TD=(NStates=1) B3LYP/6-31G(d,p)
 ---------------------------------

 -------
 ABSSPCT
 -------
 Symbolic Z-matrix:
 Charge =  0 Multiplicity = 1

                         Standard orientation:
 ---------------------------------------------------------------------
 Center     Atomic      Atomic             Coordinates (Angstroms)
 Number     Number       Type             X           Y           Z
 ---------------------------------------------------------------------
      1          6           0       -1.082741   -0.982310   -0.062858
      2          6           0        0.320833   -1.309247    0.010621
      3          6           0        1.356823   -0.387975   -0.004680
      4          6           0        0.979212    0.893364    0.028094
      5          6           0       -0.289177    1.345810    0.040635
      6          6           0       -1.302741    0.396745   -0.027498
      7          1           0       -1.716202   -1.723605    0.036206
      8          1           0       -2.458213    0.633561    0.191751
      9          1           0       -0.705887    2.500254   -0.142669
     10          1           0        1.774064    1.732549   -0.029090
     11          1           0        2.399845   -0.555853   -0.155429
     12          1           0        0.813137   -2.325224    0.193343
 ---------------------------------------------------------------------

 SCF Done:  E(RB3LYP) =  -232.190981041     A.U. after   13 cycles

 Excitation energies and oscillator strengths:

 Excited State   1:      Singlet-A      5.4926 eV  225.73 nm  f=0.0014  <S**2>=0.000
      20 -> 22         0.43586
      20 -> 23        -0.14254
      21 -> 22         0.20667
      21 -> 23         0.49625
 This state for optimization and/or second-order correction.
 Total Energy, E(TD-HF/TD-DFT) =  -231.989132346
 Copying the excited state density for this state as the 1-particle RhoCI density.

 The electronic state is 1-A.
 Alpha  occ. eigenvalues --  -10.20051 -10.19750 -10.19719 -10.18846 -10.18581
 Alpha  occ. eigenvalues --  -10.18034  -0.85904  -0.75188  -0.73850  -0.60455
 Alpha  occ. eigenvalues --   -0.59273  -0.51808  -0.46220  -0.43529  -0.42413
 Alpha  occ. eigenvalues --   -0.39903  -0.36472  -0.33258  -0.32421  -0.25543
 Alpha  occ. eigenvalues --   -0.24374
 Alpha virt. eigenvalues --   -0.00312   0.00167   0.06386   0.12579   0.13071
 Alpha virt. eigenvalues --    0.15516   0.16185   0.18260   0.18786   0.27637
 Alpha virt. eigenvalues --    0.30522   0.32621   0.34510   0.43826   0.49728

 Mulliken charges:
               1
     1  C   -0.043949
     2  C   -0.123311
     3  C   -0.054396
     4  C   -0.085633
     5  C   -0.069775
     6  C   -0.106405
     7  H    0.086268
     8  H    0.072140
     9  H    0.084875
    10  H    0.069112
    11  H    0.094652
    12  H    0.076421
 Sum of Mulliken charges =  -0.00000

 Dipole moment (field-independent basis, Debye):
    X=              0.0963    Y=             -0.1442    Z=              0.0342  Tot=              0.1768
 Quadrupole moment (field-independent basis, Debye-Ang):
   XX=            -31.5642   YY=            -32.6580   ZZ=            -38.4645
   XY=              0.0946   XZ=             -0.5399   YZ=             -0.5981

 Normal termination of Gaussian 16 at Fri Nov 10 17:15:17 2023.
