 Gaussian 16, Revision B.01,
 Gaussian 16:  EM64L-G16RevB.01 20-Dec-2017

 ---------------------------------
 # TD=(NStates=1) B3LYP/6-31G(d,p)
 ---------------------------------

 -------
 ABSSPCT
 -------
 Symbolic Z-matrix:
 Charge =  0 Multiplicity = 1

                         Standard orientation:
 ---------------------------------------------------------------------
 Center     Atomic      Atomic             Coordinates (Angstroms)
 Number     Number       Type             X           Y           Z
 ---------------------------------------------------------------------
      1          6           0       -0.606446    1.249179    0.013692
      2          6           0        0.750585    1.134276    0.021118
      3          6           0        1.374541   -0.032662   -0.027944
      4          6           0        0.669885   -1.247442    0.032063
      5          6           0       -0.758339   -1.157120   -0.061610
      6          6           0       -1.462764    0.055961   -0.022514
      7          1           0       -1.045233    2.102534    0.097682
      8          1           0       -2.585130    0.191329    0.065205
      9          1           0       -1.288625   -2.011576    0.104705
     10          1           0        1.081314   -1.993581    0.102124
     11          1           0        2.555376   -0.284538    0.017763
     12          1           0        1.477522    1.982674   -0.116311
 ---------------------------------------------------------------------

 SCF Done:  E(RB3LYP) =  -232.151575989     A.U. after   13 cycles

 Excitation energies and oscillator strengths:

 Excited State   1:      Singlet-A      5.4268 eV  228.46 nm  f=0.0003  <S**2>=0.000
      20 -> 22         0.51073
      21 -> 23        -0.48635
 This state for optimization and/or second-order correction.
 Total Energy, E(TD-HF/TD-DFT) =  -231.952143073
 Copying the excited state density for this state as the 1-particle RhoCI density.

 The electronic state is 1-A.
 Alpha  occ. eigenvalues --  -10.20085 -10.18999 -10.18431 -10.18259 -10.18053
 Alpha  occ. eigenvalues --  -10.16779  -0.84952  -0.75015  -0.74164  -0.62746
 Alpha  occ. eigenvalues --   -0.58888  -0.52380  -0.48150  -0.44479  -0.41681
 Alpha  occ. eigenvalues --   -0.40798  -0.36179  -0.35545  -0.31646  -0.25257
 Alpha  occ. eigenvalues --   -0.24044
 Alpha virt. eigenvalues --   -0.00900   0.00704   0.08731   0.12687   0.15398
 Alpha virt. eigenvalues --    0.15968   0.17728   0.19189   0.21785   0.28236
 Alpha virt. eigenvalues --    0.29550   0.32294   0.33639   0.46167   0.51326

 Mulliken charges:
               1
     1  C   -0.074971
     2  C   -0.074281
     3  C   -0.088844
     4  C    0.019298
     5  C   -0.100981
     6  C   -0.095712
     7  H    0.071743
     8  H    0.095500
     9  H    0.077443
    10  H    0.017263
    11  H    0.070558
    12  H    0.082985
 Sum of Mulliken charges =  -0.00000

 Dipole moment (field-independent basis, Debye):
    X=             -0.1020    Y=             -0.0848    Z=              0.1860  Tot=              0.2284
 Quadrupole moment (field-independent basis, Debye-Ang):
   XX=            -31.2286   YY=            -31.8492   ZZ=            -38.2103
   XY=             -0.6956   XZ=             -0.3553   YZ=             -0.3812

 Normal termination of Gaussian 16 at Fri Nov 10 18:54:02 2023.
