 Gaussian 16, Revision B.01,
 Gaussian 16:  EM64L-G16RevB.01 20-Dec-2017

 ---------------------------------
 # TD=(NStates=1) B3LYP/6-31G(d,p)
 ---------------------------------

 -------
 ABSSPCT
 -------
 Symbolic Z-matrix:
 Charge =  0 Multiplicity = 1

                         Standard orientation:
 ---------------------------------------------------------------------
 Center     Atomic      Atomic             Coordinates (Angstroms)
 Number     Number       Type             X           Y           Z
 ---------------------------------------------------------------------
      1          6           0        1.340442   -0.370726   -0.012523
      2          6           0        0.365312   -1.315901    0.069998
      3          6           0       -0.961360   -0.948704   -0.031605
      4          6           0       -1.321522    0.360329   -0.010636
      5          6           0       -0.325732    1.371377    0.049316
      6          6           0        0.949610    0.965225   -0.052246
      7          1           0        2.376352   -0.734837    0.015231
      8          1           0        1.744643    1.588521   -0.109453
      9          1           0       -0.672147    2.485057    0.150966
     10          1           0       -2.549260    0.358451   -0.073124
     11          1           0       -1.779839   -1.861421   -0.075218
     12          1           0        0.599749   -2.205374    0.017778
 ---------------------------------------------------------------------

 SCF Done:  E(RB3LYP) =  -232.184192055     A.U. after   13 cycles

 Excitation energies and oscillator strengths:

 Excited State   1:      Singlet-A      5.7005 eV  217.50 nm  f=0.0013  <S**2>=0.000
      20 -> 22         0.42986
      20 -> 23         0.24284
      21 -> 22        -0.29938
      21 -> 23         0.40756
 This state for optimization and/or second-order correction.
 Total Energy, E(TD-HF/TD-DFT) =  -231.974702804
 Copying the excited state density for this state as the 1-particle RhoCI density.

 The electronic state is 1-A.
 Alpha  occ. eigenvalues --  -10.20072 -10.19891 -10.19062 -10.18319 -10.17751
 Alpha  occ. eigenvalues --  -10.16200  -0.86029  -0.75271  -0.74308  -0.61063
 Alpha  occ. eigenvalues --   -0.59120  -0.52413  -0.45267  -0.44701  -0.41729
 Alpha  occ. eigenvalues --   -0.40571  -0.36913  -0.33558  -0.32666  -0.25342
 Alpha  occ. eigenvalues --   -0.24854
 Alpha virt. eigenvalues --    0.00073   0.00980   0.06551   0.12384   0.13441
 Alpha virt. eigenvalues --    0.15187   0.16901   0.18771   0.21494   0.29625
 Alpha virt. eigenvalues --    0.31104   0.32558   0.33976   0.46106   0.51980

 Mulliken charges:
               1
     1  C   -0.090470
     2  C   -0.028035
     3  C   -0.077110
     4  C   -0.093073
     5  C   -0.094587
     6  C   -0.074590
     7  H    0.086230
     8  H    0.078588
     9  H    0.091477
    10  H    0.080238
    11  H    0.069180
    12  H    0.052152
 Sum of Mulliken charges =  -0.00000

 Dipole moment (field-independent basis, Debye):
    X=              0.2550    Y=             -0.1464    Z=             -0.0231  Tot=              0.2950
 Quadrupole moment (field-independent basis, Debye-Ang):
   XX=            -31.7577   YY=            -31.8841   ZZ=            -38.3198
   XY=              0.0294   XZ=              0.0069   YZ=              0.1913

 Normal termination of Gaussian 16 at Fri Nov 10 17:55:18 2023.
