 Gaussian 16, Revision B.01,
 Gaussian 16:  EM64L-G16RevB.01 20-Dec-2017

 ---------------------------------
 # TD=(NStates=1) B3LYP/6-31G(d,p)
 ---------------------------------

 -------
 ABSSPCT
 -------
 Symbolic Z-matrix:
 Charge =  0 Multiplicity = 1

                         Standard orientation:
 ---------------------------------------------------------------------
 Center     Atomic      Atomic             Coordinates (Angstroms)
 Number     Number       Type             X           Y           Z
 ---------------------------------------------------------------------
      1          6           0        0.172537    1.387353   -0.025801
      2          6           0       -1.151840    0.833065    0.034988
      3          6           0       -1.325166   -0.580769   -0.047358
      4          6           0       -0.105412   -1.365687    0.039757
      5          6           0        1.114459   -0.827991   -0.008642
      6          6           0        1.308986    0.557545   -0.003353
      7          1           0        0.211182    2.431845    0.159202
      8          1           0        2.261381    0.920815   -0.072740
      9          1           0        1.877837   -1.560311   -0.002137
     10          1           0       -0.354117   -2.324993    0.055024
     11          1           0       -2.254470   -1.022079   -0.035712
     12          1           0       -1.823196    1.533622   -0.041184
 ---------------------------------------------------------------------

 SCF Done:  E(RB3LYP) =  -232.213133777     A.U. after   13 cycles

 Excitation energies and oscillator strengths:

 Excited State   1:      Singlet-A      5.3622 eV  231.22 nm  f=0.0008  <S**2>=0.000
      20 -> 22         0.50798
      21 -> 22         0.12471
      21 -> 23        -0.46650
 This state for optimization and/or second-order correction.
 Total Energy, E(TD-HF/TD-DFT) =  -232.016075020
 Copying the excited state density for this state as the 1-particle RhoCI density.

 The electronic state is 1-A.
 Alpha  occ. eigenvalues --  -10.18827 -10.18638 -10.18440 -10.18013 -10.17912
 Alpha  occ. eigenvalues --  -10.17382  -0.84277  -0.74703  -0.73820  -0.61525
 Alpha  occ. eigenvalues --   -0.59775  -0.52770  -0.48125  -0.43574  -0.42399
 Alpha  occ. eigenvalues --   -0.41638  -0.35826  -0.34423  -0.33183  -0.24777
 Alpha  occ. eigenvalues --   -0.24068
 Alpha virt. eigenvalues --   -0.00767   0.00529   0.11142   0.14988   0.15855
 Alpha virt. eigenvalues --    0.16219   0.18218   0.19623   0.20873   0.28476
 Alpha virt. eigenvalues --    0.30070   0.30876   0.32273   0.46521   0.51576

 Mulliken charges:
               1
     1  C   -0.104755
     2  C   -0.065287
     3  C   -0.094525
     4  C   -0.065475
     5  C   -0.072040
     6  C   -0.078980
     7  H    0.084574
     8  H    0.083016
     9  H    0.082116
    10  H    0.073852
    11  H    0.084468
    12  H    0.073036
 Sum of Mulliken charges =  -0.00000

 Dipole moment (field-independent basis, Debye):
    X=             -0.0605    Y=             -0.0811    Z=              0.0399  Tot=              0.1087
 Quadrupole moment (field-independent basis, Debye-Ang):
   XX=            -31.4560   YY=            -31.1229   ZZ=            -38.2099
   XY=              0.0834   XZ=             -0.0086   YZ=              0.1495

 Normal termination of Gaussian 16 at Fri Nov 10 17:01:47 2023.
