 Gaussian 16, Revision B.01,
 Gaussian 16:  EM64L-G16RevB.01 20-Dec-2017

 ---------------------------------
 # TD=(NStates=1) B3LYP/6-31G(d,p)
 ---------------------------------

 -------
 ABSSPCT
 -------
 Symbolic Z-matrix:
 Charge =  0 Multiplicity = 1

                         Standard orientation:
 ---------------------------------------------------------------------
 Center     Atomic      Atomic             Coordinates (Angstroms)
 Number     Number       Type             X           Y           Z
 ---------------------------------------------------------------------
      1          6           0       -0.943093    1.011244    0.016019
      2          6           0        0.449386    1.346222    0.015193
      3          6           0        1.391923    0.269752   -0.037483
      4          6           0        0.928766   -0.991324   -0.016470
      5          6           0       -0.375688   -1.269275    0.007178
      6          6           0       -1.385348   -0.348326   -0.040062
      7          1           0       -1.716970    1.815694    0.202389
      8          1           0       -2.498456   -0.664910   -0.157515
      9          1           0       -0.498647   -2.336957    0.150288
     10          1           0        1.469303   -1.892802    0.193483
     11          1           0        2.294684    0.593699   -0.050153
     12          1           0        0.554402    2.375523   -0.004740
 ---------------------------------------------------------------------

 SCF Done:  E(RB3LYP) =  -232.205401227     A.U. after   13 cycles

 Excitation energies and oscillator strengths:

 Excited State   1:      Singlet-A      5.4769 eV  226.38 nm  f=0.0025  <S**2>=0.000
      20 -> 22         0.22958
      20 -> 23         0.39995
      21 -> 22         0.49333
      21 -> 23        -0.20857
 This state for optimization and/or second-order correction.
 Total Energy, E(TD-HF/TD-DFT) =  -232.004129745
 Copying the excited state density for this state as the 1-particle RhoCI density.

 The electronic state is 1-A.
 Alpha  occ. eigenvalues --  -10.19640 -10.19576 -10.18803 -10.17850 -10.17513
 Alpha  occ. eigenvalues --  -10.17355  -0.85440  -0.74621  -0.74335  -0.61732
 Alpha  occ. eigenvalues --   -0.58837  -0.52546  -0.46746  -0.43773  -0.42014
 Alpha  occ. eigenvalues --   -0.40790  -0.36694  -0.33847  -0.32920  -0.24840
 Alpha  occ. eigenvalues --   -0.24565
 Alpha virt. eigenvalues --   -0.00390   0.00603   0.08818   0.13285   0.14573
 Alpha virt. eigenvalues --    0.16303   0.17623   0.18872   0.21069   0.28949
 Alpha virt. eigenvalues --    0.29851   0.31421   0.34140   0.46118   0.52153

 Mulliken charges:
               1
     1  C   -0.114925
     2  C   -0.084786
     3  C   -0.072313
     4  C   -0.056939
     5  C   -0.074112
     6  C   -0.084018
     7  H    0.081795
     8  H    0.088906
     9  H    0.074156
    10  H    0.081124
    11  H    0.072114
    12  H    0.088997
 Sum of Mulliken charges =  -0.00000

 Dipole moment (field-independent basis, Debye):
    X=              0.0240    Y=              0.0311    Z=              0.1762  Tot=              0.1805
 Quadrupole moment (field-independent basis, Debye-Ang):
   XX=            -32.1183   YY=            -31.2595   ZZ=            -38.2259
   XY=              0.0331   XZ=              0.1119   YZ=             -0.2333

 Normal termination of Gaussian 16 at Fri Nov 10 19:20:58 2023.
