 Gaussian 16, Revision B.01,
 Gaussian 16:  EM64L-G16RevB.01 20-Dec-2017

 ---------------------------------
 # TD=(NStates=1) B3LYP/6-31G(d,p)
 ---------------------------------

 -------
 ABSSPCT
 -------
 Symbolic Z-matrix:
 Charge =  0 Multiplicity = 1

                         Standard orientation:
 ---------------------------------------------------------------------
 Center     Atomic      Atomic             Coordinates (Angstroms)
 Number     Number       Type             X           Y           Z
 ---------------------------------------------------------------------
      1          6           0        1.398805    0.107494   -0.051120
      2          6           0        0.591934    1.241239    0.034701
      3          6           0       -0.801175    1.098118   -0.036798
      4          6           0       -1.474848   -0.122491    0.002995
      5          6           0       -0.565290   -1.240056   -0.009571
      6          6           0        0.803714   -1.089498    0.001946
      7          1           0        2.494579    0.192030    0.313785
      8          1           0        1.504140   -1.927310   -0.100335
      9          1           0       -0.993058   -2.201379    0.022751
     10          1           0       -2.404867   -0.264187    0.199721
     11          1           0       -1.364467    2.030103   -0.032140
     12          1           0        1.044834    2.201908   -0.056697
 ---------------------------------------------------------------------

 SCF Done:  E(RB3LYP) =  -232.218696470     A.U. after   13 cycles

 Excitation energies and oscillator strengths:

 Excited State   1:      Singlet-A      5.4111 eV  229.13 nm  f=0.0069  <S**2>=0.000
      20 -> 22         0.38305
      20 -> 23         0.25917
      21 -> 22         0.40484
      21 -> 23        -0.34913
 This state for optimization and/or second-order correction.
 Total Energy, E(TD-HF/TD-DFT) =  -232.019841699
 Copying the excited state density for this state as the 1-particle RhoCI density.

 The electronic state is 1-A.
 Alpha  occ. eigenvalues --  -10.18864 -10.18632 -10.18566 -10.18404 -10.18351
 Alpha  occ. eigenvalues --  -10.17992  -0.85237  -0.75119  -0.73767  -0.60895
 Alpha  occ. eigenvalues --   -0.59632  -0.52410  -0.46251  -0.44196  -0.42649
 Alpha  occ. eigenvalues --   -0.40539  -0.37326  -0.34052  -0.32165  -0.25355
 Alpha  occ. eigenvalues --   -0.24330
 Alpha virt. eigenvalues --   -0.01077   0.00680   0.09241   0.13800   0.14979
 Alpha virt. eigenvalues --    0.16507   0.18072   0.18769   0.19810   0.28682
 Alpha virt. eigenvalues --    0.29914   0.32363   0.33464   0.46425   0.48742

 Mulliken charges:
               1
     1  C   -0.097951
     2  C   -0.078724
     3  C   -0.097542
     4  C   -0.046311
     5  C   -0.101328
     6  C   -0.062461
     7  H    0.081738
     8  H    0.081894
     9  H    0.079005
    10  H    0.079887
    11  H    0.075978
    12  H    0.085815
 Sum of Mulliken charges =  -0.00000

 Dipole moment (field-independent basis, Debye):
    X=             -0.1551    Y=             -0.0369    Z=              0.2134  Tot=              0.2663
 Quadrupole moment (field-independent basis, Debye-Ang):
   XX=            -31.3955   YY=            -32.1687   ZZ=            -38.1572
   XY=              0.2535   XZ=              0.0092   YZ=             -0.0474

 Normal termination of Gaussian 16 at Fri Nov 10 17:52:17 2023.
