 Gaussian 16, Revision B.01,
 Gaussian 16:  EM64L-G16RevB.01 20-Dec-2017

 ---------------------------------
 # TD=(NStates=1) B3LYP/6-31G(d,p)
 ---------------------------------

 -------
 ABSSPCT
 -------
 Symbolic Z-matrix:
 Charge =  0 Multiplicity = 1

                         Standard orientation:
 ---------------------------------------------------------------------
 Center     Atomic      Atomic             Coordinates (Angstroms)
 Number     Number       Type             X           Y           Z
 ---------------------------------------------------------------------
      1          6           0        1.189171    0.703878   -0.038322
      2          6           0        0.009722    1.349115   -0.007457
      3          6           0       -1.198827    0.616401    0.094953
      4          6           0       -1.217427   -0.728240   -0.063798
      5          6           0        0.045966   -1.371786   -0.012890
      6          6           0        1.224882   -0.647192    0.003871
      7          1           0        2.201997    1.199026   -0.086727
      8          1           0        2.231368   -1.031516    0.299643
      9          1           0       -0.052057   -2.527846   -0.071069
     10          1           0       -2.241523   -1.004081    0.111092
     11          1           0       -2.198765    1.326447   -0.105599
     12          1           0       -0.261945    2.504922   -0.005488
 ---------------------------------------------------------------------

 SCF Done:  E(RB3LYP) =  -232.196074847     A.U. after   12 cycles

 Excitation energies and oscillator strengths:

 Excited State   1:      Singlet-A      5.5654 eV  222.78 nm  f=0.0007  <S**2>=0.000
      20 -> 22         0.48111
      21 -> 23         0.51720
 This state for optimization and/or second-order correction.
 Total Energy, E(TD-HF/TD-DFT) =  -231.991550292
 Copying the excited state density for this state as the 1-particle RhoCI density.

 The electronic state is 1-A.
 Alpha  occ. eigenvalues --  -10.20381 -10.19408 -10.19331 -10.19122 -10.18787
 Alpha  occ. eigenvalues --  -10.18701  -0.86116  -0.75663  -0.73399  -0.60800
 Alpha  occ. eigenvalues --   -0.58560  -0.51119  -0.46006  -0.42982  -0.41300
 Alpha  occ. eigenvalues --   -0.40336  -0.36726  -0.33457  -0.32007  -0.25821
 Alpha  occ. eigenvalues --   -0.24620
 Alpha virt. eigenvalues --   -0.00477   0.00242   0.06063   0.11494   0.12848
 Alpha virt. eigenvalues --    0.14928   0.16444   0.17416   0.18698   0.28546
 Alpha virt. eigenvalues --    0.29746   0.32326   0.34366   0.45771   0.49401

 Mulliken charges:
               1
     1  C   -0.080475
     2  C   -0.071221
     3  C   -0.096956
     4  C   -0.071280
     5  C   -0.113767
     6  C   -0.073630
     7  H    0.085498
     8  H    0.093927
     9  H    0.084638
    10  H    0.101114
    11  H    0.062862
    12  H    0.079290
 Sum of Mulliken charges =  -0.00000

 Dipole moment (field-independent basis, Debye):
    X=              0.0599    Y=              0.0284    Z=              0.1007  Tot=              0.1205
 Quadrupole moment (field-independent basis, Debye-Ang):
   XX=            -31.3836   YY=            -33.1366   ZZ=            -38.5221
   XY=             -0.1206   XZ=              0.3841   YZ=             -0.4099

 Normal termination of Gaussian 16 at Fri Nov 10 19:05:46 2023.
