 Gaussian 16, Revision B.01,
 Gaussian 16:  EM64L-G16RevB.01 20-Dec-2017

 ---------------------------------
 # TD=(NStates=1) B3LYP/6-31G(d,p)
 ---------------------------------

 -------
 ABSSPCT
 -------
 Symbolic Z-matrix:
 Charge =  0 Multiplicity = 1

                         Standard orientation:
 ---------------------------------------------------------------------
 Center     Atomic      Atomic             Coordinates (Angstroms)
 Number     Number       Type             X           Y           Z
 ---------------------------------------------------------------------
      1          6           0        0.328615    1.317640    0.014199
      2          6           0        1.368645    0.375768    0.039769
      3          6           0        1.000603   -1.012207   -0.048899
      4          6           0       -0.346981   -1.280210   -0.040967
      5          6           0       -1.358136   -0.371737   -0.027037
      6          6           0       -0.970652    0.964119   -0.002625
      7          1           0        0.626563    2.569829   -0.184527
      8          1           0       -1.882897    1.543331    0.083859
      9          1           0       -2.467689   -0.740045    0.210700
     10          1           0       -0.648655   -2.203240    0.057679
     11          1           0        1.793405   -1.712987    0.157861
     12          1           0        2.446718    0.582880    0.067788
 ---------------------------------------------------------------------

 SCF Done:  E(RB3LYP) =  -232.196081958     A.U. after   13 cycles

 Excitation energies and oscillator strengths:

 Excited State   1:      Singlet-A      5.5088 eV  225.07 nm  f=0.0017  <S**2>=0.000
      20 -> 22         0.52488
      21 -> 23         0.46298
 This state for optimization and/or second-order correction.
 Total Energy, E(TD-HF/TD-DFT) =  -231.993637935
 Copying the excited state density for this state as the 1-particle RhoCI density.

 The electronic state is 1-A.
 Alpha  occ. eigenvalues --  -10.20647 -10.19683 -10.19179 -10.18975 -10.18507
 Alpha  occ. eigenvalues --  -10.17035  -0.85615  -0.74677  -0.74239  -0.60201
 Alpha  occ. eigenvalues --   -0.59581  -0.51815  -0.45966  -0.44210  -0.40847
 Alpha  occ. eigenvalues --   -0.40326  -0.36544  -0.35431  -0.31156  -0.25241
 Alpha  occ. eigenvalues --   -0.24708
 Alpha virt. eigenvalues --   -0.00733   0.00601   0.06656   0.11137   0.13569
 Alpha virt. eigenvalues --    0.15649   0.16766   0.18407   0.20671   0.28367
 Alpha virt. eigenvalues --    0.30210   0.31552   0.34987   0.46005   0.52030

 Mulliken charges:
               1
     1  C   -0.072786
     2  C   -0.104112
     3  C   -0.082891
     4  C   -0.057924
     5  C   -0.093056
     6  C   -0.073603
     7  H    0.058349
     8  H    0.088436
     9  H    0.086258
    10  H    0.066440
    11  H    0.091587
    12  H    0.093302
 Sum of Mulliken charges =  -0.00000

 Dipole moment (field-independent basis, Debye):
    X=             -0.0424    Y=             -0.3329    Z=              0.2620  Tot=              0.4257
 Quadrupole moment (field-independent basis, Debye-Ang):
   XX=            -30.7531   YY=            -33.1381   ZZ=            -38.4354
   XY=             -0.1464   XZ=             -0.2725   YZ=             -0.6769

 Normal termination of Gaussian 16 at Fri Nov 10 16:14:03 2023.
