 Gaussian 16, Revision B.01,
 Gaussian 16:  EM64L-G16RevB.01 20-Dec-2017

 ---------------------------------
 # TD=(NStates=1) B3LYP/6-31G(d,p)
 ---------------------------------

 -------
 ABSSPCT
 -------
 Symbolic Z-matrix:
 Charge =  0 Multiplicity = 1

                         Standard orientation:
 ---------------------------------------------------------------------
 Center     Atomic      Atomic             Coordinates (Angstroms)
 Number     Number       Type             X           Y           Z
 ---------------------------------------------------------------------
      1          6           0        1.378389    0.314964   -0.023527
      2          6           0        0.396111    1.320394    0.007716
      3          6           0       -0.956027    0.973864    0.003206
      4          6           0       -1.390900   -0.360064   -0.000692
      5          6           0       -0.454454   -1.261506   -0.051663
      6          6           0        0.989302   -1.021238    0.057133
      7          1           0        2.467346    0.573444   -0.090712
      8          1           0        1.894652   -1.740950    0.052379
      9          1           0       -0.621874   -2.421520   -0.025896
     10          1           0       -2.433332   -0.581792    0.092027
     11          1           0       -1.732856    1.856332   -0.012066
     12          1           0        0.651536    2.515996    0.031231
 ---------------------------------------------------------------------

 SCF Done:  E(RB3LYP) =  -232.212641896     A.U. after   13 cycles

 Excitation energies and oscillator strengths:

 Excited State   1:      Singlet-A      5.5484 eV  223.46 nm  f=0.0019  <S**2>=0.000
      20 -> 22        -0.47386
      20 -> 23        -0.10525
      21 -> 22        -0.17552
      21 -> 23         0.48265
 This state for optimization and/or second-order correction.
 Total Energy, E(TD-HF/TD-DFT) =  -232.008743279
 Copying the excited state density for this state as the 1-particle RhoCI density.

 The electronic state is 1-A.
 Alpha  occ. eigenvalues --  -10.20158 -10.20139 -10.19815 -10.19716 -10.19412
 Alpha  occ. eigenvalues --  -10.18527  -0.85247  -0.75214  -0.72722  -0.59308
 Alpha  occ. eigenvalues --   -0.58950  -0.50853  -0.44975  -0.44595  -0.41452
 Alpha  occ. eigenvalues --   -0.39280  -0.36470  -0.34396  -0.31843  -0.25804
 Alpha  occ. eigenvalues --   -0.24096
 Alpha virt. eigenvalues --   -0.00671   0.00866   0.06409   0.11741   0.12564
 Alpha virt. eigenvalues --    0.15746   0.16030   0.16980   0.17825   0.27759
 Alpha virt. eigenvalues --    0.29305   0.31568   0.34102   0.45505   0.50132

 Mulliken charges:
               1
     1  C   -0.089062
     2  C   -0.071472
     3  C   -0.105710
     4  C   -0.043897
     5  C   -0.105508
     6  C   -0.091636
     7  H    0.086021
     8  H    0.095497
     9  H    0.073379
    10  H    0.096467
    11  H    0.078678
    12  H    0.077242
 Sum of Mulliken charges =  -0.00000

 Dipole moment (field-independent basis, Debye):
    X=              0.0356    Y=             -0.0052    Z=              0.0249  Tot=              0.0438
 Quadrupole moment (field-independent basis, Debye-Ang):
   XX=            -31.1078   YY=            -32.5994   ZZ=            -38.8481
   XY=             -0.4320   XZ=             -0.2617   YZ=             -0.0848

 Normal termination of Gaussian 16 at Fri Nov 10 16:51:38 2023.
