 Gaussian 16, Revision B.01,
 Gaussian 16:  EM64L-G16RevB.01 20-Dec-2017

 ---------------------------------
 # TD=(NStates=1) B3LYP/6-31G(d,p)
 ---------------------------------

 -------
 ABSSPCT
 -------
 Symbolic Z-matrix:
 Charge =  0 Multiplicity = 1

                         Standard orientation:
 ---------------------------------------------------------------------
 Center     Atomic      Atomic             Coordinates (Angstroms)
 Number     Number       Type             X           Y           Z
 ---------------------------------------------------------------------
      1          6           0       -0.465617    1.247532    0.067222
      2          6           0       -1.427326    0.217000   -0.071700
      3          6           0       -0.892129   -1.043391   -0.005914
      4          6           0        0.506263   -1.284273   -0.026883
      5          6           0        1.443380   -0.250500   -0.065614
      6          6           0        0.866866    1.131847   -0.026503
      7          1           0       -0.753622    2.341664    0.059335
      8          1           0        1.460276    1.975629    0.188738
      9          1           0        2.371135   -0.579558    0.086797
     10          1           0        0.912059   -2.281970    0.228787
     11          1           0       -1.659141   -1.936239    0.256131
     12          1           0       -2.519323    0.371183   -0.043435
 ---------------------------------------------------------------------

 SCF Done:  E(RB3LYP) =  -232.213075912     A.U. after   13 cycles

 Excitation energies and oscillator strengths:

 Excited State   1:      Singlet-A      5.3596 eV  231.33 nm  f=0.0047  <S**2>=0.000
      20 -> 22         0.54391
      21 -> 22         0.12391
      21 -> 23        -0.42816
 This state for optimization and/or second-order correction.
 Total Energy, E(TD-HF/TD-DFT) =  -232.016114679
 Copying the excited state density for this state as the 1-particle RhoCI density.

 The electronic state is 1-A.
 Alpha  occ. eigenvalues --  -10.19998 -10.19408 -10.19113 -10.19046 -10.19019
 Alpha  occ. eigenvalues --  -10.18879  -0.84602  -0.74359  -0.74007  -0.60802
 Alpha  occ. eigenvalues --   -0.58201  -0.51681  -0.46222  -0.43501  -0.41828
 Alpha  occ. eigenvalues --   -0.40598  -0.36123  -0.34763  -0.32036  -0.24985
 Alpha  occ. eigenvalues --   -0.24421
 Alpha virt. eigenvalues --   -0.01395   0.00768   0.07933   0.12860   0.14042
 Alpha virt. eigenvalues --    0.14858   0.16863   0.18628   0.19783   0.28164
 Alpha virt. eigenvalues --    0.29182   0.30134   0.32925   0.46026   0.50178

 Mulliken charges:
               1
     1  C   -0.084296
     2  C   -0.077488
     3  C   -0.084309
     4  C   -0.092651
     5  C   -0.078053
     6  C   -0.087943
     7  H    0.073900
     8  H    0.091361
     9  H    0.084003
    10  H    0.085661
    11  H    0.073430
    12  H    0.096384
 Sum of Mulliken charges =  -0.00000

 Dipole moment (field-independent basis, Debye):
    X=              0.0583    Y=              0.0085    Z=              0.4554  Tot=              0.4592
 Quadrupole moment (field-independent basis, Debye-Ang):
   XX=            -31.3279   YY=            -32.2775   ZZ=            -38.5145
   XY=             -0.2317   XZ=              0.3615   YZ=             -0.4575

 Normal termination of Gaussian 16 at Fri Nov 10 17:03:06 2023.
