 Gaussian 16, Revision B.01,
 Gaussian 16:  EM64L-G16RevB.01 20-Dec-2017

 ---------------------------------
 # TD=(NStates=1) B3LYP/6-31G(d,p)
 ---------------------------------

 -------
 ABSSPCT
 -------
 Symbolic Z-matrix:
 Charge =  0 Multiplicity = 1

                         Standard orientation:
 ---------------------------------------------------------------------
 Center     Atomic      Atomic             Coordinates (Angstroms)
 Number     Number       Type             X           Y           Z
 ---------------------------------------------------------------------
      1          6           0        1.262413   -0.754789    0.010713
      2          6           0       -0.080061   -1.406420   -0.072683
      3          6           0       -1.300736   -0.657693    0.018032
      4          6           0       -1.217109    0.732081   -0.034110
      5          6           0        0.042272    1.459102    0.017059
      6          6           0        1.264892    0.622580    0.070804
      7          1           0        2.229386   -1.392562   -0.020425
      8          1           0        2.203016    1.145071   -0.044814
      9          1           0        0.142799    2.581450   -0.214319
     10          1           0       -2.028748    1.193247    0.009235
     11          1           0       -2.299244   -1.135813    0.250301
     12          1           0       -0.077229   -2.360565   -0.038862
 ---------------------------------------------------------------------

 SCF Done:  E(RB3LYP) =  -232.189003469     A.U. after   14 cycles

 Excitation energies and oscillator strengths:

 Excited State   1:      Singlet-A      5.0683 eV  244.63 nm  f=0.0002  <S**2>=0.000
      20 -> 22         0.51848
      21 -> 23         0.48031
 This state for optimization and/or second-order correction.
 Total Energy, E(TD-HF/TD-DFT) =  -232.002747337
 Copying the excited state density for this state as the 1-particle RhoCI density.

 The electronic state is 1-A.
 Alpha  occ. eigenvalues --  -10.20822 -10.20462 -10.19809 -10.19438 -10.18853
 Alpha  occ. eigenvalues --  -10.17957  -0.82929  -0.74378  -0.72477  -0.60854
 Alpha  occ. eigenvalues --   -0.58779  -0.51669  -0.46856  -0.42699  -0.41958
 Alpha  occ. eigenvalues --   -0.40897  -0.35348  -0.34141  -0.33172  -0.24921
 Alpha  occ. eigenvalues --   -0.23252
 Alpha virt. eigenvalues --   -0.01963   0.00170   0.09054   0.12523   0.13653
 Alpha virt. eigenvalues --    0.14542   0.17469   0.18642   0.20109   0.26576
 Alpha virt. eigenvalues --    0.28700   0.30016   0.31303   0.46441   0.47866

 Mulliken charges:
               1
     1  C   -0.087778
     2  C   -0.080010
     3  C   -0.088834
     4  C   -0.055509
     5  C   -0.101929
     6  C   -0.091270
     7  H    0.094504
     8  H    0.083301
     9  H    0.095933
    10  H    0.065875
    11  H    0.093751
    12  H    0.071967
 Sum of Mulliken charges =  -0.00000

 Dipole moment (field-independent basis, Debye):
    X=             -0.0419    Y=             -0.0728    Z=             -0.0471  Tot=              0.0963
 Quadrupole moment (field-independent basis, Debye-Ang):
   XX=            -31.0530   YY=            -31.4637   ZZ=            -38.7810
   XY=             -0.1369   XZ=             -0.6509   YZ=             -0.6640

 Normal termination of Gaussian 16 at Fri Nov 10 17:53:52 2023.
