 Gaussian 16, Revision B.01,
 Gaussian 16:  EM64L-G16RevB.01 20-Dec-2017

 ---------------------------------
 # TD=(NStates=1) B3LYP/6-31G(d,p)
 ---------------------------------

 -------
 ABSSPCT
 -------
 Symbolic Z-matrix:
 Charge =  0 Multiplicity = 1

                         Standard orientation:
 ---------------------------------------------------------------------
 Center     Atomic      Atomic             Coordinates (Angstroms)
 Number     Number       Type             X           Y           Z
 ---------------------------------------------------------------------
      1          6           0       -0.976800    1.021572   -0.012771
      2          6           0        0.441942    1.348577   -0.046299
      3          6           0        1.392689    0.272095   -0.001832
      4          6           0        0.949916   -1.027905   -0.028297
      5          6           0       -0.389506   -1.385835    0.068807
      6          6           0       -1.394536   -0.291913   -0.040520
      7          1           0       -1.578606    1.957573    0.172079
      8          1           0       -2.505254   -0.419087    0.035118
      9          1           0       -1.050783   -2.319587   -0.130634
     10          1           0        1.773955   -1.891006    0.158797
     11          1           0        2.448250    0.549025   -0.067506
     12          1           0        0.770207    2.503540    0.197613
 ---------------------------------------------------------------------

 SCF Done:  E(RB3LYP) =  -232.199801669     A.U. after   14 cycles

 Excitation energies and oscillator strengths:

 Excited State   1:      Singlet-A      5.2420 eV  236.52 nm  f=0.0007  <S**2>=0.000
      20 -> 22         0.52184
      21 -> 23        -0.47610
 This state for optimization and/or second-order correction.
 Total Energy, E(TD-HF/TD-DFT) =  -232.007162723
 Copying the excited state density for this state as the 1-particle RhoCI density.

 The electronic state is 1-A.
 Alpha  occ. eigenvalues --  -10.21017 -10.20949 -10.20715 -10.19997 -10.19743
 Alpha  occ. eigenvalues --  -10.19663  -0.83944  -0.74263  -0.72594  -0.59548
 Alpha  occ. eigenvalues --   -0.58597  -0.50164  -0.45305  -0.43765  -0.40940
 Alpha  occ. eigenvalues --   -0.39524  -0.35739  -0.34099  -0.31471  -0.25475
 Alpha  occ. eigenvalues --   -0.24048
 Alpha virt. eigenvalues --   -0.01948   0.00114   0.06490   0.11024   0.12493
 Alpha virt. eigenvalues --    0.13955   0.14794   0.17046   0.17531   0.25868
 Alpha virt. eigenvalues --    0.29078   0.29971   0.32671   0.45440   0.49405

 Mulliken charges:
               1
     1  C   -0.068177
     2  C   -0.101394
     3  C   -0.073821
     4  C   -0.092785
     5  C   -0.090873
     6  C   -0.112260
     7  H    0.087640
     8  H    0.091964
     9  H    0.104819
    10  H    0.078677
    11  H    0.095582
    12  H    0.080628
 Sum of Mulliken charges =  -0.00000

 Dipole moment (field-independent basis, Debye):
    X=             -0.1007    Y=              0.1765    Z=              0.1870  Tot=              0.2762
 Quadrupole moment (field-independent basis, Debye-Ang):
   XX=            -31.5458   YY=            -32.3100   ZZ=            -39.0961
   XY=              0.5282   XZ=              0.0642   YZ=              0.6821

 Normal termination of Gaussian 16 at Fri Nov 10 19:23:59 2023.
