 Gaussian 16, Revision B.01,
 Gaussian 16:  EM64L-G16RevB.01 20-Dec-2017

 ---------------------------------
 # TD=(NStates=1) B3LYP/6-31G(d,p)
 ---------------------------------

 -------
 ABSSPCT
 -------
 Symbolic Z-matrix:
 Charge =  0 Multiplicity = 1

                         Standard orientation:
 ---------------------------------------------------------------------
 Center     Atomic      Atomic             Coordinates (Angstroms)
 Number     Number       Type             X           Y           Z
 ---------------------------------------------------------------------
      1          6           0       -0.956730   -1.027712   -0.005251
      2          6           0        0.444957   -1.331709   -0.007710
      3          6           0        1.407965   -0.323486   -0.007644
      4          6           0        0.919057    1.061642    0.036750
      5          6           0       -0.415598    1.325360    0.002981
      6          6           0       -1.399013    0.297483   -0.098888
      7          1           0       -1.652080   -1.772163    0.268801
      8          1           0       -2.485629    0.416353    0.195243
      9          1           0       -0.820997    2.314229   -0.013057
     10          1           0        1.727316    1.882187    0.118597
     11          1           0        2.500988   -0.471638   -0.107264
     12          1           0        0.726574   -2.378438    0.016245
 ---------------------------------------------------------------------

 SCF Done:  E(RB3LYP) =  -232.234717863     A.U. after   13 cycles

 Excitation energies and oscillator strengths:

 Excited State   1:      Singlet-A      5.2832 eV  234.68 nm  f=0.0022  <S**2>=0.000
      20 -> 22         0.49219
      20 -> 23         0.16199
      21 -> 22         0.21914
      21 -> 23        -0.42791
 This state for optimization and/or second-order correction.
 Total Energy, E(TD-HF/TD-DFT) =  -232.040564705
 Copying the excited state density for this state as the 1-particle RhoCI density.

 The electronic state is 1-A.
 Alpha  occ. eigenvalues --  -10.20001 -10.19936 -10.19402 -10.19270 -10.18924
 Alpha  occ. eigenvalues --  -10.18783  -0.83992  -0.73900  -0.73456  -0.59613
 Alpha  occ. eigenvalues --   -0.59295  -0.51187  -0.45790  -0.43807  -0.41639
 Alpha  occ. eigenvalues --   -0.40922  -0.35442  -0.34631  -0.32637  -0.24771
 Alpha  occ. eigenvalues --   -0.24307
 Alpha virt. eigenvalues --   -0.01182   0.00202   0.08522   0.13402   0.13893
 Alpha virt. eigenvalues --    0.14964   0.17119   0.17254   0.19735   0.27357
 Alpha virt. eigenvalues --    0.29533   0.30486   0.32809   0.46808   0.50890

 Mulliken charges:
               1
     1  C   -0.085116
     2  C   -0.085190
     3  C   -0.090314
     4  C   -0.086076
     5  C   -0.081636
     6  C   -0.100380
     7  H    0.088685
     8  H    0.089407
     9  H    0.087236
    10  H    0.084975
    11  H    0.094210
    12  H    0.084201
 Sum of Mulliken charges =  -0.00000

 Dipole moment (field-independent basis, Debye):
    X=              0.0544    Y=             -0.0645    Z=              0.2980  Tot=              0.3097
 Quadrupole moment (field-independent basis, Debye-Ang):
   XX=            -31.2112   YY=            -32.1093   ZZ=            -38.6606
   XY=              0.2151   XZ=             -0.8667   YZ=             -0.1982

 Normal termination of Gaussian 16 at Fri Nov 10 18:49:36 2023.
