 Gaussian 16, Revision B.01,
 Gaussian 16:  EM64L-G16RevB.01 20-Dec-2017

 ---------------------------------
 # TD=(NStates=1) B3LYP/6-31G(d,p)
 ---------------------------------

 -------
 ABSSPCT
 -------
 Symbolic Z-matrix:
 Charge =  0 Multiplicity = 1

                         Standard orientation:
 ---------------------------------------------------------------------
 Center     Atomic      Atomic             Coordinates (Angstroms)
 Number     Number       Type             X           Y           Z
 ---------------------------------------------------------------------
      1          6           0       -1.299761    0.577565   -0.026429
      2          6           0       -1.122865   -0.850085   -0.040928
      3          6           0        0.121969   -1.359861    0.034606
      4          6           0        1.317983   -0.489194   -0.066386
      5          6           0        1.115844    0.811092   -0.001675
      6          6           0       -0.138923    1.353565   -0.047240
      7          1           0       -2.389687    0.964675    0.268236
      8          1           0       -0.186539    2.436261    0.062369
      9          1           0        2.042737    1.345132    0.259579
     10          1           0        2.151072   -1.227506    0.166477
     11          1           0        0.340986   -2.329418    0.003183
     12          1           0       -1.924049   -1.447641    0.128467
 ---------------------------------------------------------------------

 SCF Done:  E(RB3LYP) =  -232.199399011     A.U. after   13 cycles

 Excitation energies and oscillator strengths:

 Excited State   1:      Singlet-A      5.4887 eV  225.89 nm  f=0.0010  <S**2>=0.000
      20 -> 22         0.51814
      21 -> 23         0.46774
 This state for optimization and/or second-order correction.
 Total Energy, E(TD-HF/TD-DFT) =  -231.997691344
 Copying the excited state density for this state as the 1-particle RhoCI density.

 The electronic state is 1-A.
 Alpha  occ. eigenvalues --  -10.20387 -10.18985 -10.18737 -10.18347 -10.17812
 Alpha  occ. eigenvalues --  -10.17469  -0.85254  -0.75362  -0.73543  -0.60564
 Alpha  occ. eigenvalues --   -0.59635  -0.51900  -0.46034  -0.44422  -0.42534
 Alpha  occ. eigenvalues --   -0.40355  -0.36703  -0.34007  -0.31552  -0.25572
 Alpha  occ. eigenvalues --   -0.24131
 Alpha virt. eigenvalues --   -0.01029   0.00942   0.08338   0.11712   0.14433
 Alpha virt. eigenvalues --    0.15583   0.18112   0.18148   0.21478   0.26687
 Alpha virt. eigenvalues --    0.30426   0.31598   0.35088   0.46157   0.51957

 Mulliken charges:
               1
     1  C   -0.099605
     2  C   -0.068022
     3  C   -0.083320
     4  C   -0.088180
     5  C   -0.076513
     6  C   -0.090523
     7  H    0.089648
     8  H    0.085504
     9  H    0.088314
    10  H    0.088978
    11  H    0.074958
    12  H    0.078761
 Sum of Mulliken charges =  -0.00000

 Dipole moment (field-independent basis, Debye):
    X=             -0.0219    Y=             -0.1767    Z=              0.5333  Tot=              0.5622
 Quadrupole moment (field-independent basis, Debye-Ang):
   XX=            -31.8984   YY=            -31.8598   ZZ=            -38.2087
   XY=             -0.2675   XZ=             -0.0359   YZ=              0.2143

 Normal termination of Gaussian 16 at Fri Nov 10 16:16:44 2023.
