 Gaussian 16, Revision B.01,
 Gaussian 16:  EM64L-G16RevB.01 20-Dec-2017

 ---------------------------------
 # TD=(NStates=1) B3LYP/6-31G(d,p)
 ---------------------------------

 -------
 ABSSPCT
 -------
 Symbolic Z-matrix:
 Charge =  0 Multiplicity = 1

                         Standard orientation:
 ---------------------------------------------------------------------
 Center     Atomic      Atomic             Coordinates (Angstroms)
 Number     Number       Type             X           Y           Z
 ---------------------------------------------------------------------
      1          6           0        0.846805    1.033343   -0.036492
      2          6           0       -0.481063    1.336841   -0.077502
      3          6           0       -1.434358    0.213189    0.040735
      4          6           0       -0.898155   -1.072727    0.044349
      5          6           0        0.504445   -1.263034   -0.114157
      6          6           0        1.380682   -0.229387    0.030566
      7          1           0        1.691504    1.825030    0.245134
      8          1           0        2.562304   -0.417578    0.281100
      9          1           0        1.014207   -2.126687    0.000142
     10          1           0       -1.594645   -1.945213   -0.024107
     11          1           0       -2.340296    0.282069    0.256672
     12          1           0       -0.843211    2.273036   -0.083934
 ---------------------------------------------------------------------

 SCF Done:  E(RB3LYP) =  -232.183163699     A.U. after   13 cycles

 Excitation energies and oscillator strengths:

 Excited State   1:      Singlet-A      5.3635 eV  231.16 nm  f=0.0022  <S**2>=0.000
      20 -> 22         0.53441
      21 -> 22        -0.10275
      21 -> 23        -0.44372
 This state for optimization and/or second-order correction.
 Total Energy, E(TD-HF/TD-DFT) =  -231.986058861
 Copying the excited state density for this state as the 1-particle RhoCI density.

 The electronic state is 1-A.
 Alpha  occ. eigenvalues --  -10.19428 -10.19282 -10.19093 -10.18912 -10.18208
 Alpha  occ. eigenvalues --  -10.17736  -0.84988  -0.74893  -0.73995  -0.61370
 Alpha  occ. eigenvalues --   -0.59453  -0.51842  -0.46768  -0.43951  -0.42229
 Alpha  occ. eigenvalues --   -0.40275  -0.36505  -0.34724  -0.31919  -0.24857
 Alpha  occ. eigenvalues --   -0.24485
 Alpha virt. eigenvalues --   -0.01030   0.00444   0.07460   0.13380   0.13737
 Alpha virt. eigenvalues --    0.15815   0.17653   0.19479   0.19889   0.28447
 Alpha virt. eigenvalues --    0.29910   0.31156   0.33823   0.46078   0.50297

 Mulliken charges:
               1
     1  C   -0.073241
     2  C   -0.080186
     3  C   -0.058321
     4  C   -0.102256
     5  C   -0.070051
     6  C   -0.086624
     7  H    0.067400
     8  H    0.084248
     9  H    0.077515
    10  H    0.086343
    11  H    0.069847
    12  H    0.085327
 Sum of Mulliken charges =  -0.00000

 Dipole moment (field-independent basis, Debye):
    X=             -0.1227    Y=             -0.0347    Z=              0.3719  Tot=              0.3931
 Quadrupole moment (field-independent basis, Debye-Ang):
   XX=            -31.0352   YY=            -32.5309   ZZ=            -38.2572
   XY=             -0.4913   XZ=              0.4092   YZ=              0.1493

 Normal termination of Gaussian 16 at Fri Nov 10 18:15:12 2023.
