 Gaussian 16, Revision B.01,
 Gaussian 16:  EM64L-G16RevB.01 20-Dec-2017

 ---------------------------------
 # TD=(NStates=1) B3LYP/6-31G(d,p)
 ---------------------------------

 -------
 ABSSPCT
 -------
 Symbolic Z-matrix:
 Charge =  0 Multiplicity = 1

                         Standard orientation:
 ---------------------------------------------------------------------
 Center     Atomic      Atomic             Coordinates (Angstroms)
 Number     Number       Type             X           Y           Z
 ---------------------------------------------------------------------
      1          6           0       -1.375588    0.293675    0.004173
      2          6           0       -0.989922   -1.083312   -0.004423
      3          6           0        0.453285   -1.329332   -0.025155
      4          6           0        1.396626   -0.320025   -0.046065
      5          6           0        0.906852    1.045858    0.032738
      6          6           0       -0.424820    1.374549   -0.027253
      7          1           0       -2.489438    0.537118   -0.118326
      8          1           0       -0.576003    2.375841    0.148317
      9          1           0        1.607303    1.743881    0.050192
     10          1           0        2.414739   -0.416455   -0.011286
     11          1           0        0.952670   -2.271587    0.192043
     12          1           0       -1.707865   -1.857273    0.134968
 ---------------------------------------------------------------------

 SCF Done:  E(RB3LYP) =  -232.218143624     A.U. after   13 cycles

 Excitation energies and oscillator strengths:

 Excited State   1:      Singlet-A      5.2523 eV  236.05 nm  f=0.0000  <S**2>=0.000
      20 -> 22         0.49951
      21 -> 23         0.49963
 This state for optimization and/or second-order correction.
 Total Energy, E(TD-HF/TD-DFT) =  -232.025123336
 Copying the excited state density for this state as the 1-particle RhoCI density.

 The electronic state is 1-A.
 Alpha  occ. eigenvalues --  -10.20455 -10.20059 -10.19410 -10.18455 -10.18271
 Alpha  occ. eigenvalues --  -10.17644  -0.83634  -0.74177  -0.73507  -0.60358
 Alpha  occ. eigenvalues --   -0.59648  -0.51852  -0.47226  -0.43328  -0.42165
 Alpha  occ. eigenvalues --   -0.41286  -0.35662  -0.34527  -0.32385  -0.24659
 Alpha  occ. eigenvalues --   -0.24095
 Alpha virt. eigenvalues --   -0.00787  -0.00232   0.10022   0.13710   0.15001
 Alpha virt. eigenvalues --    0.15673   0.16793   0.17433   0.21597   0.27570
 Alpha virt. eigenvalues --    0.28265   0.30600   0.32194   0.45776   0.48632

 Mulliken charges:
               1
     1  C   -0.111017
     2  C   -0.084729
     3  C   -0.099084
     4  C   -0.068458
     5  C   -0.078208
     6  C   -0.065729
     7  H    0.082048
     8  H    0.088114
     9  H    0.070997
    10  H    0.084478
    11  H    0.083770
    12  H    0.097818
 Sum of Mulliken charges =  -0.00000

 Dipole moment (field-independent basis, Debye):
    X=              0.2246    Y=              0.1085    Z=              0.2687  Tot=              0.3666
 Quadrupole moment (field-independent basis, Debye-Ang):
   XX=            -31.1272   YY=            -31.7187   ZZ=            -38.5483
   XY=              0.4367   XZ=              0.1730   YZ=             -0.2373

 Normal termination of Gaussian 16 at Fri Nov 10 17:52:08 2023.
