 Gaussian 16, Revision B.01,
 Gaussian 16:  EM64L-G16RevB.01 20-Dec-2017

 ---------------------------------
 # TD=(NStates=1) B3LYP/6-31G(d,p)
 ---------------------------------

 -------
 ABSSPCT
 -------
 Symbolic Z-matrix:
 Charge =  0 Multiplicity = 1

                         Standard orientation:
 ---------------------------------------------------------------------
 Center     Atomic      Atomic             Coordinates (Angstroms)
 Number     Number       Type             X           Y           Z
 ---------------------------------------------------------------------
      1          6           0        0.756307    1.149684    0.064237
      2          6           0        1.449288   -0.134703   -0.063802
      3          6           0        0.591101   -1.256171    0.034057
      4          6           0       -0.819375   -1.125437    0.023766
      5          6           0       -1.426476    0.106349   -0.042117
      6          6           0       -0.625927    1.193677   -0.023401
      7          1           0        1.324188    2.121837   -0.091502
      8          1           0       -0.782052    2.287351    0.181261
      9          1           0       -2.507436    0.347747   -0.090982
     10          1           0       -1.405823   -2.145930    0.085353
     11          1           0        1.252654   -2.115676   -0.053184
     12          1           0        2.568965   -0.095718    0.012613
 ---------------------------------------------------------------------

 SCF Done:  E(RB3LYP) =  -232.208928162     A.U. after   13 cycles

 Excitation energies and oscillator strengths:

 Excited State   1:      Singlet-A      5.3992 eV  229.64 nm  f=0.0028  <S**2>=0.000
      20 -> 22         0.39993
      20 -> 23         0.26235
      21 -> 22        -0.35860
      21 -> 23         0.37680
 This state for optimization and/or second-order correction.
 Total Energy, E(TD-HF/TD-DFT) =  -232.010512172
 Copying the excited state density for this state as the 1-particle RhoCI density.

 The electronic state is 1-A.
 Alpha  occ. eigenvalues --  -10.20634 -10.19777 -10.19530 -10.19417 -10.19063
 Alpha  occ. eigenvalues --  -10.18391  -0.84957  -0.74510  -0.73489  -0.60348
 Alpha  occ. eigenvalues --   -0.58793  -0.51098  -0.44910  -0.44741  -0.41650
 Alpha  occ. eigenvalues --   -0.39973  -0.36231  -0.33756  -0.31445  -0.25206
 Alpha  occ. eigenvalues --   -0.24448
 Alpha virt. eigenvalues --   -0.00896   0.00243   0.07453   0.12736   0.13233
 Alpha virt. eigenvalues --    0.15136   0.15557   0.17179   0.18906   0.28472
 Alpha virt. eigenvalues --    0.29420   0.30767   0.31591   0.47100   0.49547

 Mulliken charges:
               1
     1  C   -0.106453
     2  C   -0.098268
     3  C   -0.087868
     4  C   -0.099692
     5  C   -0.077753
     6  C   -0.066708
     7  H    0.078840
     8  H    0.087265
     9  H    0.096920
    10  H    0.086912
    11  H    0.093354
    12  H    0.093450
 Sum of Mulliken charges =  -0.00000

 Dipole moment (field-independent basis, Debye):
    X=              0.1321    Y=              0.0652    Z=              0.0147  Tot=              0.1481
 Quadrupole moment (field-independent basis, Debye-Ang):
   XX=            -31.5280   YY=            -32.1965   ZZ=            -38.7519
   XY=             -0.0404   XZ=             -0.1335   YZ=              0.1019

 Normal termination of Gaussian 16 at Fri Nov 10 17:14:30 2023.
