 Gaussian 16, Revision B.01,
 Gaussian 16:  EM64L-G16RevB.01 20-Dec-2017

 ---------------------------------
 # TD=(NStates=1) B3LYP/6-31G(d,p)
 ---------------------------------

 -------
 ABSSPCT
 -------
 Symbolic Z-matrix:
 Charge =  0 Multiplicity = 1

                         Standard orientation:
 ---------------------------------------------------------------------
 Center     Atomic      Atomic             Coordinates (Angstroms)
 Number     Number       Type             X           Y           Z
 ---------------------------------------------------------------------
      1          6           0        1.078386    0.932375    0.077099
      2          6           0        1.376363   -0.395147   -0.004815
      3          6           0        0.325818   -1.320328   -0.058108
      4          6           0       -1.042555   -0.972547    0.039375
      5          6           0       -1.402439    0.391073   -0.023815
      6          6           0       -0.334532    1.355841    0.032116
      7          1           0        1.851636    1.670084   -0.095760
      8          1           0       -0.585422    2.478354   -0.169075
      9          1           0       -2.391379    0.806456   -0.177082
     10          1           0       -1.759136   -1.804459    0.216246
     11          1           0        0.560096   -2.294824   -0.078087
     12          1           0        2.317951   -0.803213   -0.067354
 ---------------------------------------------------------------------

 SCF Done:  E(RB3LYP) =  -232.227679842     A.U. after   13 cycles

 Excitation energies and oscillator strengths:

 Excited State   1:      Singlet-A      5.2233 eV  237.37 nm  f=0.0009  <S**2>=0.000
      20 -> 22         0.47491
      20 -> 23        -0.10086
      21 -> 22         0.13643
      21 -> 23         0.49531
 This state for optimization and/or second-order correction.
 Total Energy, E(TD-HF/TD-DFT) =  -232.035728427
 Copying the excited state density for this state as the 1-particle RhoCI density.

 The electronic state is 1-A.
 Alpha  occ. eigenvalues --  -10.20535 -10.19697 -10.19619 -10.19305 -10.18110
 Alpha  occ. eigenvalues --  -10.17892  -0.83909  -0.74504  -0.72844  -0.59975
 Alpha  occ. eigenvalues --   -0.59419  -0.51566  -0.46609  -0.43655  -0.42182
 Alpha  occ. eigenvalues --   -0.40406  -0.35296  -0.34436  -0.33607  -0.24927
 Alpha  occ. eigenvalues --   -0.23637
 Alpha virt. eigenvalues --   -0.00960   0.00001   0.09164   0.13699   0.14735
 Alpha virt. eigenvalues --    0.14830   0.17178   0.17694   0.20533   0.27520
 Alpha virt. eigenvalues --    0.29389   0.30953   0.31877   0.47148   0.51127

 Mulliken charges:
               1
     1  C   -0.097443
     2  C   -0.057267
     3  C   -0.075443
     4  C   -0.091334
     5  C   -0.086008
     6  C   -0.105483
     7  H    0.088531
     8  H    0.083238
     9  H    0.093471
    10  H    0.089398
    11  H    0.074158
    12  H    0.084183
 Sum of Mulliken charges =  -0.00000

 Dipole moment (field-independent basis, Debye):
    X=              0.0778    Y=             -0.1541    Z=             -0.2348  Tot=              0.2914
 Quadrupole moment (field-independent basis, Debye-Ang):
   XX=            -31.4223   YY=            -31.5594   ZZ=            -38.6042
   XY=             -0.3261   XZ=             -0.1923   YZ=             -0.7540

 Normal termination of Gaussian 16 at Fri Nov 10 19:24:11 2023.
