 Gaussian 16, Revision B.01,
 Gaussian 16:  EM64L-G16RevB.01 20-Dec-2017

 ---------------------------------
 # TD=(NStates=1) B3LYP/6-31G(d,p)
 ---------------------------------

 -------
 ABSSPCT
 -------
 Symbolic Z-matrix:
 Charge =  0 Multiplicity = 1

                         Standard orientation:
 ---------------------------------------------------------------------
 Center     Atomic      Atomic             Coordinates (Angstroms)
 Number     Number       Type             X           Y           Z
 ---------------------------------------------------------------------
      1          6           0        0.218139   -1.383145    0.013007
      2          6           0       -1.157705   -0.854996   -0.043351
      3          6           0       -1.313812    0.529914   -0.011343
      4          6           0       -0.163358    1.390175    0.047144
      5          6           0        1.104534    0.806462   -0.107274
      6          6           0        1.297782   -0.499402    0.053991
      7          1           0        0.332796   -2.434975    0.179604
      8          1           0        2.245171   -0.963170    0.126070
      9          1           0        2.078877    1.464164   -0.221314
     10          1           0       -0.302380    2.549800    0.290060
     11          1           0       -2.337520    0.997808    0.085279
     12          1           0       -1.930424   -1.547671   -0.172743
 ---------------------------------------------------------------------

 SCF Done:  E(RB3LYP) =  -232.224206289     A.U. after   13 cycles

 Excitation energies and oscillator strengths:

 Excited State   1:      Singlet-A      5.3245 eV  232.85 nm  f=0.0008  <S**2>=0.000
      20 -> 22         0.49533
      21 -> 22        -0.12188
      21 -> 23        -0.48542
 This state for optimization and/or second-order correction.
 Total Energy, E(TD-HF/TD-DFT) =  -232.028532969
 Copying the excited state density for this state as the 1-particle RhoCI density.

 The electronic state is 1-A.
 Alpha  occ. eigenvalues --  -10.20487 -10.19819 -10.19411 -10.19197 -10.19078
 Alpha  occ. eigenvalues --  -10.18032  -0.84556  -0.74618  -0.72848  -0.59870
 Alpha  occ. eigenvalues --   -0.59033  -0.51228  -0.45634  -0.43864  -0.41889
 Alpha  occ. eigenvalues --   -0.40394  -0.36682  -0.34016  -0.32440  -0.25323
 Alpha  occ. eigenvalues --   -0.23613
 Alpha virt. eigenvalues --   -0.01202   0.00686   0.07827   0.13295   0.13422
 Alpha virt. eigenvalues --    0.15305   0.16342   0.17710   0.19291   0.27367
 Alpha virt. eigenvalues --    0.30296   0.31264   0.32863   0.46703   0.51256

 Mulliken charges:
               1
     1  C   -0.104002
     2  C   -0.081192
     3  C   -0.092534
     4  C   -0.095860
     5  C   -0.085084
     6  C   -0.055557
     7  H    0.085704
     8  H    0.087092
     9  H    0.076085
    10  H    0.089926
    11  H    0.086349
    12  H    0.089075
 Sum of Mulliken charges =  -0.00000

 Dipole moment (field-independent basis, Debye):
    X=              0.0220    Y=             -0.1503    Z=              0.1785  Tot=              0.2344
 Quadrupole moment (field-independent basis, Debye-Ang):
   XX=            -31.6967   YY=            -31.6321   ZZ=            -38.6177
   XY=             -0.1296   XZ=              0.0036   YZ=              0.2136

 Normal termination of Gaussian 16 at Fri Nov 10 18:28:12 2023.
