 Gaussian 16, Revision B.01,
 Gaussian 16:  EM64L-G16RevB.01 20-Dec-2017

 ---------------------------------
 # TD=(NStates=1) B3LYP/6-31G(d,p)
 ---------------------------------

 -------
 ABSSPCT
 -------
 Symbolic Z-matrix:
 Charge =  0 Multiplicity = 1

                         Standard orientation:
 ---------------------------------------------------------------------
 Center     Atomic      Atomic             Coordinates (Angstroms)
 Number     Number       Type             X           Y           Z
 ---------------------------------------------------------------------
      1          6           0        0.033786    1.354237   -0.066073
      2          6           0       -1.193797    0.691189   -0.014221
      3          6           0       -1.288325   -0.663566    0.080964
      4          6           0       -0.022020   -1.380688   -0.001530
      5          6           0        1.197643   -0.730957   -0.074487
      6          6           0        1.260097    0.685846    0.024841
      7          1           0       -0.152226    2.494506    0.110092
      8          1           0        2.213039    1.265955    0.306583
      9          1           0        2.150578   -1.194574    0.072956
     10          1           0        0.050143   -2.487878   -0.145817
     11          1           0       -2.127702   -1.231124    0.152570
     12          1           0       -2.058133    1.416746   -0.193346
 ---------------------------------------------------------------------

 SCF Done:  E(RB3LYP) =  -232.221969418     A.U. after   13 cycles

 Excitation energies and oscillator strengths:

 Excited State   1:      Singlet-A      5.3245 eV  232.85 nm  f=0.0028  <S**2>=0.000
      20 -> 22         0.40412
      20 -> 23         0.25069
      21 -> 22        -0.35968
      21 -> 23         0.37936
 This state for optimization and/or second-order correction.
 Total Energy, E(TD-HF/TD-DFT) =  -232.026296770
 Copying the excited state density for this state as the 1-particle RhoCI density.

 The electronic state is 1-A.
 Alpha  occ. eigenvalues --  -10.19871 -10.19713 -10.19268 -10.19194 -10.18983
 Alpha  occ. eigenvalues --  -10.18801  -0.84625  -0.74534  -0.73338  -0.60595
 Alpha  occ. eigenvalues --   -0.58582  -0.51531  -0.45833  -0.43418  -0.42248
 Alpha  occ. eigenvalues --   -0.40181  -0.36030  -0.33799  -0.32989  -0.25049
 Alpha  occ. eigenvalues --   -0.24182
 Alpha virt. eigenvalues --   -0.00962   0.00253   0.07909   0.12641   0.13571
 Alpha virt. eigenvalues --    0.15293   0.17604   0.18146   0.18287   0.27883
 Alpha virt. eigenvalues --    0.29414   0.31792   0.32663   0.46402   0.51438

 Mulliken charges:
               1
     1  C   -0.080387
     2  C   -0.083979
     3  C   -0.064941
     4  C   -0.106861
     5  C   -0.084407
     6  C   -0.096368
     7  H    0.075714
     8  H    0.092790
     9  H    0.088996
    10  H    0.087195
    11  H    0.087773
    12  H    0.084475
 Sum of Mulliken charges =  -0.00000

 Dipole moment (field-independent basis, Debye):
    X=             -0.0337    Y=             -0.0963    Z=              0.2077  Tot=              0.2315
 Quadrupole moment (field-independent basis, Debye-Ang):
   XX=            -31.6041   YY=            -32.0496   ZZ=            -38.5600
   XY=             -0.0413   XZ=              0.6826   YZ=              0.3888

 Normal termination of Gaussian 16 at Fri Nov 10 17:43:49 2023.
