 Gaussian 16, Revision B.01,
 Gaussian 16:  EM64L-G16RevB.01 20-Dec-2017

 ---------------------------------
 # TD=(NStates=1) B3LYP/6-31G(d,p)
 ---------------------------------

 -------
 ABSSPCT
 -------
 Symbolic Z-matrix:
 Charge =  0 Multiplicity = 1

                         Standard orientation:
 ---------------------------------------------------------------------
 Center     Atomic      Atomic             Coordinates (Angstroms)
 Number     Number       Type             X           Y           Z
 ---------------------------------------------------------------------
      1          6           0        0.981072    0.983443    0.093822
      2          6           0        1.400078   -0.309943    0.006885
      3          6           0        0.400150   -1.376534   -0.051065
      4          6           0       -0.991720   -0.947768    0.031856
      5          6           0       -1.388130    0.313491   -0.005302
      6          6           0       -0.356968    1.327410   -0.097013
      7          1           0        1.724236    1.716860    0.013505
      8          1           0       -0.737005    2.532753    0.016091
      9          1           0       -2.509633    0.577060    0.067429
     10          1           0       -1.726345   -1.746334    0.125574
     11          1           0        0.551917   -2.457180   -0.033054
     12          1           0        2.429934   -0.563753   -0.064644
 ---------------------------------------------------------------------

 SCF Done:  E(RB3LYP) =  -232.214969676     A.U. after   13 cycles

 Excitation energies and oscillator strengths:

 Excited State   1:      Singlet-A      5.3896 eV  230.04 nm  f=0.0006  <S**2>=0.000
      20 -> 22         0.51783
      21 -> 23         0.47786
 This state for optimization and/or second-order correction.
 Total Energy, E(TD-HF/TD-DFT) =  -232.016906732
 Copying the excited state density for this state as the 1-particle RhoCI density.

 The electronic state is 1-A.
 Alpha  occ. eigenvalues --  -10.20981 -10.20075 -10.19480 -10.19380 -10.18609
 Alpha  occ. eigenvalues --  -10.18449  -0.84533  -0.75413  -0.72240  -0.60268
 Alpha  occ. eigenvalues --   -0.58664  -0.51131  -0.45346  -0.43681  -0.42519
 Alpha  occ. eigenvalues --   -0.40029  -0.35958  -0.34074  -0.32585  -0.25920
 Alpha  occ. eigenvalues --   -0.23573
 Alpha virt. eigenvalues --   -0.01789   0.01113   0.07113   0.12664   0.13741
 Alpha virt. eigenvalues --    0.15001   0.16041   0.18587   0.18822   0.27110
 Alpha virt. eigenvalues --    0.28783   0.31055   0.33207   0.46705   0.50014

 Mulliken charges:
               1
     1  C   -0.068016
     2  C   -0.091677
     3  C   -0.094847
     4  C   -0.076599
     5  C   -0.075559
     6  C   -0.101459
     7  H    0.088609
     8  H    0.065774
     9  H    0.090526
    10  H    0.079820
    11  H    0.092636
    12  H    0.090792
 Sum of Mulliken charges =  -0.00000

 Dipole moment (field-independent basis, Debye):
    X=              0.0524    Y=             -0.2085    Z=              0.0746  Tot=              0.2276
 Quadrupole moment (field-independent basis, Debye-Ang):
   XX=            -31.3044   YY=            -32.0453   ZZ=            -38.7914
   XY=              0.1601   XZ=             -0.4591   YZ=              0.0414

 Normal termination of Gaussian 16 at Fri Nov 10 16:04:48 2023.
