 Gaussian 16, Revision B.01,
 Gaussian 16:  EM64L-G16RevB.01 20-Dec-2017

 ---------------------------------
 # TD=(NStates=1) B3LYP/6-31G(d,p)
 ---------------------------------

 -------
 ABSSPCT
 -------
 Symbolic Z-matrix:
 Charge =  0 Multiplicity = 1

                         Standard orientation:
 ---------------------------------------------------------------------
 Center     Atomic      Atomic             Coordinates (Angstroms)
 Number     Number       Type             X           Y           Z
 ---------------------------------------------------------------------
      1          6           0        0.165880   -1.303952   -0.037104
      2          6           0        1.314332   -0.528474    0.036306
      3          6           0        1.110972    0.812239   -0.005681
      4          6           0       -0.235837    1.311546   -0.046381
      5          6           0       -1.276194    0.521922    0.023438
      6          6           0       -1.074817   -0.847568   -0.043665
      7          1           0        0.185481   -2.430887    0.079643
      8          1           0       -2.028706   -1.374722   -0.057008
      9          1           0       -2.156419    0.979796    0.374467
     10          1           0       -0.134899    2.505825   -0.088529
     11          1           0        1.866340    1.671899    0.014604
     12          1           0        2.242191   -1.146184    0.115340
 ---------------------------------------------------------------------

 SCF Done:  E(RB3LYP) =  -232.205873847     A.U. after   13 cycles

 Excitation energies and oscillator strengths:

 Excited State   1:      Singlet-A      5.7051 eV  217.32 nm  f=0.0029  <S**2>=0.000
      20 -> 22         0.28202
      20 -> 23        -0.37206
      21 -> 22         0.46750
      21 -> 23         0.25037
 This state for optimization and/or second-order correction.
 Total Energy, E(TD-HF/TD-DFT) =  -231.996213447
 Copying the excited state density for this state as the 1-particle RhoCI density.

 The electronic state is 1-A.
 Alpha  occ. eigenvalues --  -10.19357 -10.19127 -10.18819 -10.18297 -10.17969
 Alpha  occ. eigenvalues --  -10.17331  -0.86549  -0.75416  -0.74237  -0.60775
 Alpha  occ. eigenvalues --   -0.59030  -0.52068  -0.46296  -0.43593  -0.42190
 Alpha  occ. eigenvalues --   -0.39853  -0.37417  -0.33461  -0.32355  -0.25350
 Alpha  occ. eigenvalues --   -0.24865
 Alpha virt. eigenvalues --    0.00118   0.01100   0.07236   0.12127   0.13557
 Alpha virt. eigenvalues --    0.16674   0.17206   0.18445   0.19241   0.28420
 Alpha virt. eigenvalues --    0.30991   0.33883   0.35182   0.44835   0.51731

 Mulliken charges:
               1
     1  C   -0.098548
     2  C   -0.067417
     3  C   -0.103151
     4  C   -0.064932
     5  C   -0.096183
     6  C   -0.070560
     7  H    0.075957
     8  H    0.088719
     9  H    0.090355
    10  H    0.070918
    11  H    0.082982
    12  H    0.091860
 Sum of Mulliken charges =  -0.00000

 Dipole moment (field-independent basis, Debye):
    X=             -0.0856    Y=             -0.0243    Z=              0.2767  Tot=              0.2907
 Quadrupole moment (field-independent basis, Debye-Ang):
   XX=            -32.1129   YY=            -32.0845   ZZ=            -38.1597
   XY=              0.2476   XZ=             -0.3256   YZ=             -0.0346

 Normal termination of Gaussian 16 at Fri Nov 10 17:51:20 2023.
