 Gaussian 16, Revision B.01,
 Gaussian 16:  EM64L-G16RevB.01 20-Dec-2017

 ---------------------------------
 # TD=(NStates=1) B3LYP/6-31G(d,p)
 ---------------------------------

 -------
 ABSSPCT
 -------
 Symbolic Z-matrix:
 Charge =  0 Multiplicity = 1

                         Standard orientation:
 ---------------------------------------------------------------------
 Center     Atomic      Atomic             Coordinates (Angstroms)
 Number     Number       Type             X           Y           Z
 ---------------------------------------------------------------------
      1          6           0        0.714068   -1.203231    0.054034
      2          6           0        1.432970   -0.019201   -0.057905
      3          6           0        0.711492    1.211454   -0.033395
      4          6           0       -0.698524    1.202091    0.085088
      5          6           0       -1.508413   -0.012202   -0.077806
      6          6           0       -0.670486   -1.198246    0.031183
      7          1           0        1.335368   -2.165747    0.173738
      8          1           0       -1.199634   -2.116559   -0.119068
      9          1           0       -2.567436   -0.034551   -0.117553
     10          1           0       -0.986759    2.213656    0.201035
     11          1           0        1.205849    2.193842   -0.041589
     12          1           0        2.325965    0.025370   -0.103757
 ---------------------------------------------------------------------

 SCF Done:  E(RB3LYP) =  -232.194197427     A.U. after   12 cycles

 Excitation energies and oscillator strengths:

 Excited State   1:      Singlet-A      5.1903 eV  238.87 nm  f=0.0038  <S**2>=0.000
      20 -> 22         0.50112
      20 -> 23        -0.17473
      21 -> 22        -0.23075
      21 -> 23        -0.40599
 This state for optimization and/or second-order correction.
 Total Energy, E(TD-HF/TD-DFT) =  -232.003455725
 Copying the excited state density for this state as the 1-particle RhoCI density.

 The electronic state is 1-A.
 Alpha  occ. eigenvalues --  -10.20398 -10.19390 -10.19212 -10.19205 -10.18975
 Alpha  occ. eigenvalues --  -10.17219  -0.83762  -0.74057  -0.73574  -0.61783
 Alpha  occ. eigenvalues --   -0.58453  -0.52092  -0.47905  -0.43378  -0.41887
 Alpha  occ. eigenvalues --   -0.40544  -0.35533  -0.35306  -0.32267  -0.24324
 Alpha  occ. eigenvalues --   -0.24133
 Alpha virt. eigenvalues --   -0.01297   0.00310   0.09598   0.13463   0.14465
 Alpha virt. eigenvalues --    0.15430   0.17675   0.18062   0.20988   0.27714
 Alpha virt. eigenvalues --    0.29205   0.30476   0.31360   0.47134   0.48506

 Mulliken charges:
               1
     1  C   -0.079120
     2  C   -0.016778
     3  C   -0.102887
     4  C   -0.085411
     5  C   -0.089302
     6  C   -0.105559
     7  H    0.084036
     8  H    0.084411
     9  H    0.100245
    10  H    0.078663
    11  H    0.087099
    12  H    0.044604
 Sum of Mulliken charges =  -0.00000

 Dipole moment (field-independent basis, Debye):
    X=              0.0922    Y=              0.0812    Z=             -0.0268  Tot=              0.1257
 Quadrupole moment (field-independent basis, Debye-Ang):
   XX=            -30.9786   YY=            -31.7189   ZZ=            -38.5586
   XY=              0.3165   XZ=              0.1784   YZ=              0.2039

 Normal termination of Gaussian 16 at Fri Nov 10 16:33:03 2023.
