 Gaussian 16, Revision B.01,
 Gaussian 16:  EM64L-G16RevB.01 20-Dec-2017

 ---------------------------------
 # TD=(NStates=1) B3LYP/6-31G(d,p)
 ---------------------------------

 -------
 ABSSPCT
 -------
 Symbolic Z-matrix:
 Charge =  0 Multiplicity = 1

                         Standard orientation:
 ---------------------------------------------------------------------
 Center     Atomic      Atomic             Coordinates (Angstroms)
 Number     Number       Type             X           Y           Z
 ---------------------------------------------------------------------
      1          6           0       -1.403289    0.029506    0.016168
      2          6           0       -0.682009    1.206739   -0.008864
      3          6           0        0.742811    1.244933   -0.004644
      4          6           0        1.450228   -0.069098   -0.083229
      5          6           0        0.683990   -1.231384   -0.012459
      6          6           0       -0.744407   -1.200737   -0.027448
      7          1           0       -2.478785    0.028351   -0.078288
      8          1           0       -1.369998   -1.878972    0.092836
      9          1           0        0.977944   -2.257166    0.329782
     10          1           0        2.651671    0.015202    0.039499
     11          1           0        1.303658    2.005117    0.278099
     12          1           0       -1.368426    2.207718    0.060929
 ---------------------------------------------------------------------

 SCF Done:  E(RB3LYP) =  -232.178900266     A.U. after   13 cycles

 Excitation energies and oscillator strengths:

 Excited State   1:      Singlet-A      5.1458 eV  240.94 nm  f=0.0024  <S**2>=0.000
      20 -> 22         0.45564
      20 -> 23        -0.16019
      21 -> 22        -0.26804
      21 -> 23        -0.44060
 This state for optimization and/or second-order correction.
 Total Energy, E(TD-HF/TD-DFT) =  -231.989796140
 Copying the excited state density for this state as the 1-particle RhoCI density.

 The electronic state is 1-A.
 Alpha  occ. eigenvalues --  -10.21465 -10.20219 -10.19994 -10.19489 -10.18391
 Alpha  occ. eigenvalues --  -10.17487  -0.84013  -0.74295  -0.73509  -0.61618
 Alpha  occ. eigenvalues --   -0.58685  -0.50960  -0.47582  -0.43882  -0.40775
 Alpha  occ. eigenvalues --   -0.40278  -0.36582  -0.34740  -0.31579  -0.24962
 Alpha  occ. eigenvalues --   -0.23874
 Alpha virt. eigenvalues --   -0.01582  -0.00105   0.08067   0.11486   0.13187
 Alpha virt. eigenvalues --    0.14922   0.16355   0.18664   0.21023   0.26631
 Alpha virt. eigenvalues --    0.29726   0.30120   0.32731   0.46727   0.50550

 Mulliken charges:
               1
     1  C   -0.083789
     2  C   -0.082549
     3  C   -0.080638
     4  C   -0.112307
     5  C   -0.087009
     6  C   -0.043551
     7  H    0.085471
     8  H    0.064319
     9  H    0.091880
    10  H    0.087706
    11  H    0.091938
    12  H    0.068528
 Sum of Mulliken charges =  -0.00000

 Dipole moment (field-independent basis, Debye):
    X=             -0.1426    Y=             -0.0828    Z=              0.4656  Tot=              0.4939
 Quadrupole moment (field-independent basis, Debye-Ang):
   XX=            -31.2164   YY=            -32.3910   ZZ=            -38.5673
   XY=              1.0206   XZ=              0.6565   YZ=             -0.1535

 Normal termination of Gaussian 16 at Fri Nov 10 17:09:34 2023.
