 Gaussian 16, Revision B.01,
 Gaussian 16:  EM64L-G16RevB.01 20-Dec-2017

 ---------------------------------
 # TD=(NStates=1) B3LYP/6-31G(d,p)
 ---------------------------------

 -------
 ABSSPCT
 -------
 Symbolic Z-matrix:
 Charge =  0 Multiplicity = 1

                         Standard orientation:
 ---------------------------------------------------------------------
 Center     Atomic      Atomic             Coordinates (Angstroms)
 Number     Number       Type             X           Y           Z
 ---------------------------------------------------------------------
      1          6           0       -0.648397    1.167395   -0.015413
      2          6           0        0.633822    1.228549   -0.078161
      3          6           0        1.418694    0.000820    0.077412
      4          6           0        0.705737   -1.195676   -0.035796
      5          6           0       -0.728285   -1.203764   -0.055199
      6          6           0       -1.415476   -0.011426    0.095910
      7          1           0       -1.300028    2.110062   -0.215170
      8          1           0       -2.506390    0.078362    0.245767
      9          1           0       -1.242442   -2.123251   -0.163873
     10          1           0        1.383099   -2.169885    0.002253
     11          1           0        2.540016   -0.032121    0.139532
     12          1           0        1.329176    2.221441    0.058975
 ---------------------------------------------------------------------

 SCF Done:  E(RB3LYP) =  -232.211074613     A.U. after   13 cycles

 Excitation energies and oscillator strengths:

 Excited State   1:      Singlet-A      5.4551 eV  227.28 nm  f=0.0023  <S**2>=0.000
      20 -> 22         0.52968
      21 -> 22        -0.12205
      21 -> 23        -0.44360
 This state for optimization and/or second-order correction.
 Total Energy, E(TD-HF/TD-DFT) =  -232.010604434
 Copying the excited state density for this state as the 1-particle RhoCI density.

 The electronic state is 1-A.
 Alpha  occ. eigenvalues --  -10.20088 -10.19727 -10.19580 -10.19434 -10.19301
 Alpha  occ. eigenvalues --  -10.18666  -0.85130  -0.74347  -0.73587  -0.60215
 Alpha  occ. eigenvalues --   -0.58110  -0.50963  -0.44850  -0.44340  -0.41390
 Alpha  occ. eigenvalues --   -0.40053  -0.36636  -0.34915  -0.31311  -0.25249
 Alpha  occ. eigenvalues --   -0.24340
 Alpha virt. eigenvalues --   -0.01018   0.00868   0.06603   0.11961   0.13176
 Alpha virt. eigenvalues --    0.15592   0.16486   0.17295   0.17953   0.27984
 Alpha virt. eigenvalues --    0.29335   0.30318   0.34863   0.46184   0.50493

 Mulliken charges:
               1
     1  C   -0.075669
     2  C   -0.081629
     3  C   -0.097518
     4  C   -0.086322
     5  C   -0.090568
     6  C   -0.077889
     7  H    0.076725
     8  H    0.094276
     9  H    0.088965
    10  H    0.079745
    11  H    0.091815
    12  H    0.078069
 Sum of Mulliken charges =  -0.00000

 Dipole moment (field-independent basis, Debye):
    X=             -0.0871    Y=             -0.1347    Z=              0.0566  Tot=              0.1701
 Quadrupole moment (field-independent basis, Debye-Ang):
   XX=            -30.9641   YY=            -32.7617   ZZ=            -38.6823
   XY=             -0.0210   XZ=              0.2514   YZ=              0.1119

 Normal termination of Gaussian 16 at Fri Nov 10 17:40:05 2023.
