 Gaussian 16, Revision B.01,
 Gaussian 16:  EM64L-G16RevB.01 20-Dec-2017

 ---------------------------------
 # TD=(NStates=1) B3LYP/6-31G(d,p)
 ---------------------------------

 -------
 ABSSPCT
 -------
 Symbolic Z-matrix:
 Charge =  0 Multiplicity = 1

                         Standard orientation:
 ---------------------------------------------------------------------
 Center     Atomic      Atomic             Coordinates (Angstroms)
 Number     Number       Type             X           Y           Z
 ---------------------------------------------------------------------
      1          6           0       -0.758917   -1.143633    0.033305
      2          6           0       -1.399231    0.065925   -0.063271
      3          6           0       -0.639498    1.191869   -0.006152
      4          6           0        0.780551    1.181967    0.079254
      5          6           0        1.354664   -0.072386   -0.054056
      6          6           0        0.704880   -1.215416   -0.047664
      7          1           0       -1.387701   -2.133640    0.020282
      8          1           0        1.098936   -2.191745    0.217642
      9          1           0        2.404183   -0.174722    0.046661
     10          1           0        1.448779    2.106363   -0.074983
     11          1           0       -1.225394    2.197962    0.014679
     12          1           0       -2.593493    0.145825    0.127219
 ---------------------------------------------------------------------

 SCF Done:  E(RB3LYP) =  -232.211538912     A.U. after   13 cycles

 Excitation energies and oscillator strengths:

 Excited State   1:      Singlet-A      5.5329 eV  224.09 nm  f=0.0008  <S**2>=0.000
      20 -> 22         0.51240
      21 -> 23        -0.47723
 This state for optimization and/or second-order correction.
 Total Energy, E(TD-HF/TD-DFT) =  -232.008208916
 Copying the excited state density for this state as the 1-particle RhoCI density.

 The electronic state is 1-A.
 Alpha  occ. eigenvalues --  -10.20039 -10.19834 -10.19783 -10.19547 -10.18645
 Alpha  occ. eigenvalues --  -10.17862  -0.85610  -0.75523  -0.73036  -0.60270
 Alpha  occ. eigenvalues --   -0.58491  -0.51207  -0.44895  -0.43600  -0.41685
 Alpha  occ. eigenvalues --   -0.40624  -0.36757  -0.33943  -0.31947  -0.26185
 Alpha  occ. eigenvalues --   -0.24132
 Alpha virt. eigenvalues --   -0.01443   0.01069   0.06827   0.12115   0.12919
 Alpha virt. eigenvalues --    0.15535   0.16521   0.17356   0.19242   0.27589
 Alpha virt. eigenvalues --    0.29991   0.31727   0.34458   0.45358   0.49590

 Mulliken charges:
               1
     1  C   -0.109575
     2  C   -0.057509
     3  C   -0.099178
     4  C   -0.082877
     5  C   -0.080081
     6  C   -0.075580
     7  H    0.078878
     8  H    0.094213
     9  H    0.079618
    10  H    0.093172
    11  H    0.077623
    12  H    0.081298
 Sum of Mulliken charges =  -0.00000

 Dipole moment (field-independent basis, Debye):
    X=              0.0744    Y=             -0.0721    Z=              0.2006  Tot=              0.2258
 Quadrupole moment (field-independent basis, Debye-Ang):
   XX=            -31.9399   YY=            -32.0954   ZZ=            -38.5856
   XY=              0.0471   XZ=             -0.1245   YZ=             -0.5859

 Normal termination of Gaussian 16 at Fri Nov 10 17:56:22 2023.
