 Gaussian 16, Revision B.01,
 Gaussian 16:  EM64L-G16RevB.01 20-Dec-2017

 ---------------------------------
 # TD=(NStates=1) B3LYP/6-31G(d,p)
 ---------------------------------

 -------
 ABSSPCT
 -------
 Symbolic Z-matrix:
 Charge =  0 Multiplicity = 1

                         Standard orientation:
 ---------------------------------------------------------------------
 Center     Atomic      Atomic             Coordinates (Angstroms)
 Number     Number       Type             X           Y           Z
 ---------------------------------------------------------------------
      1          6           0        0.267209    1.293585   -0.028187
      2          6           0        1.355011    0.443934    0.017805
      3          6           0        1.050148   -0.870335   -0.038250
      4          6           0       -0.234002   -1.345969   -0.028632
      5          6           0       -1.376238   -0.485248    0.030155
      6          6           0       -1.104654    0.934508    0.022074
      7          1           0        0.574807    2.401270   -0.027320
      8          1           0       -1.746604    1.819266   -0.017680
      9          1           0       -2.293207   -0.823992   -0.094478
     10          1           0       -0.359057   -2.397108    0.159510
     11          1           0        1.658955   -1.490938   -0.009095
     12          1           0        2.420264    0.668648    0.139275
 ---------------------------------------------------------------------

 SCF Done:  E(RB3LYP) =  -232.175898148     A.U. after   14 cycles

 Excitation energies and oscillator strengths:

 Excited State   1:      Singlet-A      5.3836 eV  230.30 nm  f=0.0037  <S**2>=0.000
      20 -> 22        -0.27891
      20 -> 23         0.36090
      21 -> 22         0.46387
      21 -> 23         0.27633
 This state for optimization and/or second-order correction.
 Total Energy, E(TD-HF/TD-DFT) =  -231.978055984
 Copying the excited state density for this state as the 1-particle RhoCI density.

 The electronic state is 1-A.
 Alpha  occ. eigenvalues --  -10.19784 -10.19084 -10.18962 -10.18312 -10.18222
 Alpha  occ. eigenvalues --  -10.15554  -0.85009  -0.75163  -0.73757  -0.61609
 Alpha  occ. eigenvalues --   -0.59769  -0.52667  -0.47624  -0.43421  -0.43130
 Alpha  occ. eigenvalues --   -0.40215  -0.35869  -0.35061  -0.32999  -0.24896
 Alpha  occ. eigenvalues --   -0.24141
 Alpha virt. eigenvalues --   -0.00531   0.00423   0.09546   0.14583   0.14959
 Alpha virt. eigenvalues --    0.16160   0.17357   0.18340   0.22301   0.28488
 Alpha virt. eigenvalues --    0.30145   0.31811   0.32995   0.46039   0.50767

 Mulliken charges:
               1
     1  C   -0.110646
     2  C   -0.065111
     3  C    0.005747
     4  C   -0.098906
     5  C   -0.096302
     6  C   -0.078720
     7  H    0.067796
     8  H    0.095583
     9  H    0.084424
    10  H    0.081148
    11  H    0.025692
    12  H    0.089293
 Sum of Mulliken charges =  -0.00000

 Dipole moment (field-independent basis, Debye):
    X=              0.1498    Y=             -0.1368    Z=              0.0919  Tot=              0.2227
 Quadrupole moment (field-independent basis, Debye-Ang):
   XX=            -31.1039   YY=            -31.8649   ZZ=            -38.1977
   XY=             -0.3539   XZ=              0.4277   YZ=             -0.2512

 Normal termination of Gaussian 16 at Fri Nov 10 17:20:02 2023.
