 Gaussian 16, Revision B.01,
 Gaussian 16:  EM64L-G16RevB.01 20-Dec-2017

 ---------------------------------
 # TD=(NStates=1) B3LYP/6-31G(d,p)
 ---------------------------------

 -------
 ABSSPCT
 -------
 Symbolic Z-matrix:
 Charge =  0 Multiplicity = 1

                         Standard orientation:
 ---------------------------------------------------------------------
 Center     Atomic      Atomic             Coordinates (Angstroms)
 Number     Number       Type             X           Y           Z
 ---------------------------------------------------------------------
      1          6           0        1.383455    0.373224   -0.044775
      2          6           0        1.019689   -1.008852   -0.023553
      3          6           0       -0.325775   -1.329855    0.019701
      4          6           0       -1.335286   -0.416359   -0.015689
      5          6           0       -1.058293    0.986331    0.002719
      6          6           0        0.339233    1.399477   -0.002568
      7          1           0        2.568773    0.583901    0.072525
      8          1           0        0.789499    2.491321    0.162583
      9          1           0       -2.051073    1.757938   -0.012219
     10          1           0       -2.344424   -0.809275   -0.013737
     11          1           0       -0.883700   -2.254390    0.087885
     12          1           0        1.782794   -1.793288    0.087953
 ---------------------------------------------------------------------

 SCF Done:  E(RB3LYP) =  -232.200900942     A.U. after   14 cycles

 Excitation energies and oscillator strengths:

 Excited State   1:      Singlet-A      5.2886 eV  234.44 nm  f=0.0005  <S**2>=0.000
      20 -> 22         0.51177
      21 -> 23         0.47463
 This state for optimization and/or second-order correction.
 Total Energy, E(TD-HF/TD-DFT) =  -232.006547462
 Copying the excited state density for this state as the 1-particle RhoCI density.

 The electronic state is 1-A.
 Alpha  occ. eigenvalues --  -10.21865 -10.21777 -10.21349 -10.19765 -10.18844
 Alpha  occ. eigenvalues --  -10.18402  -0.84022  -0.73802  -0.72970  -0.59893
 Alpha  occ. eigenvalues --   -0.58181  -0.50475  -0.45114  -0.43147  -0.40873
 Alpha  occ. eigenvalues --   -0.39880  -0.35622  -0.34314  -0.32247  -0.24688
 Alpha  occ. eigenvalues --   -0.24578
 Alpha virt. eigenvalues --   -0.00909  -0.00310   0.06164   0.11216   0.12490
 Alpha virt. eigenvalues --    0.12999   0.14842   0.16612   0.19803   0.27046
 Alpha virt. eigenvalues --    0.28884   0.30009   0.31708   0.46196   0.50911

 Mulliken charges:
               1
     1  C   -0.096235
     2  C   -0.094458
     3  C   -0.047287
     4  C   -0.090510
     5  C   -0.091067
     6  C   -0.106659
     7  H    0.087969
     8  H    0.093214
     9  H    0.080250
    10  H    0.089402
    11  H    0.082311
    12  H    0.093070
 Sum of Mulliken charges =  -0.00000

 Dipole moment (field-independent basis, Debye):
    X=             -0.0571    Y=             -0.2135    Z=              0.2376  Tot=              0.3245
 Quadrupole moment (field-independent basis, Debye-Ang):
   XX=            -30.8879   YY=            -32.5669   ZZ=            -39.1922
   XY=              0.5277   XZ=              0.3957   YZ=              0.0744

 Normal termination of Gaussian 16 at Fri Nov 10 19:08:56 2023.
