 Gaussian 16, Revision B.01,
 Gaussian 16:  EM64L-G16RevB.01 20-Dec-2017

 ---------------------------------
 # TD=(NStates=1) B3LYP/6-31G(d,p)
 ---------------------------------

 -------
 ABSSPCT
 -------
 Symbolic Z-matrix:
 Charge =  0 Multiplicity = 1

                         Standard orientation:
 ---------------------------------------------------------------------
 Center     Atomic      Atomic             Coordinates (Angstroms)
 Number     Number       Type             X           Y           Z
 ---------------------------------------------------------------------
      1          6           0        0.304144   -1.306890   -0.026143
      2          6           0       -1.066197   -0.967309   -0.009786
      3          6           0       -1.296292    0.370640   -0.052395
      4          6           0       -0.317745    1.392821    0.075499
      5          6           0        1.031529    0.884238   -0.078716
      6          6           0        1.349316   -0.418196   -0.018849
      7          1           0        0.546973   -2.305413    0.306073
      8          1           0        2.490997   -0.762697    0.202347
      9          1           0        1.699197    1.682867   -0.156567
     10          1           0       -0.502458    2.374171    0.365846
     11          1           0       -2.289793    0.885692   -0.096286
     12          1           0       -1.973451   -1.606452    0.040928
 ---------------------------------------------------------------------

 SCF Done:  E(RB3LYP) =  -232.206978051     A.U. after   13 cycles

 Excitation energies and oscillator strengths:

 Excited State   1:      Singlet-A      5.3241 eV  232.87 nm  f=0.0014  <S**2>=0.000
      20 -> 22         0.53858
      21 -> 23        -0.44812
 This state for optimization and/or second-order correction.
 Total Energy, E(TD-HF/TD-DFT) =  -232.011321520
 Copying the excited state density for this state as the 1-particle RhoCI density.

 The electronic state is 1-A.
 Alpha  occ. eigenvalues --  -10.19469 -10.19258 -10.18767 -10.18715 -10.18700
 Alpha  occ. eigenvalues --  -10.18212  -0.85230  -0.74855  -0.73640  -0.60751
 Alpha  occ. eigenvalues --   -0.58797  -0.51541  -0.46174  -0.44297  -0.41936
 Alpha  occ. eigenvalues --   -0.40840  -0.36916  -0.33581  -0.31882  -0.25077
 Alpha  occ. eigenvalues --   -0.23762
 Alpha virt. eigenvalues --   -0.01200   0.00955   0.07865   0.12576   0.14065
 Alpha virt. eigenvalues --    0.15460   0.17239   0.18068   0.20126   0.28569
 Alpha virt. eigenvalues --    0.28791   0.33072   0.34139   0.44754   0.48666

 Mulliken charges:
               1
     1  C   -0.117632
     2  C   -0.068114
     3  C   -0.090709
     4  C   -0.083433
     5  C   -0.090655
     6  C   -0.060939
     7  H    0.080406
     8  H    0.087987
     9  H    0.075738
    10  H    0.097447
    11  H    0.070700
    12  H    0.099204
 Sum of Mulliken charges =  -0.00000

 Dipole moment (field-independent basis, Debye):
    X=             -0.0485    Y=              0.2605    Z=              0.4102  Tot=              0.4884
 Quadrupole moment (field-independent basis, Debye-Ang):
   XX=            -31.9789   YY=            -31.7828   ZZ=            -38.2504
   XY=              0.0883   XZ=              0.2489   YZ=             -0.2127

 Normal termination of Gaussian 16 at Fri Nov 10 16:24:04 2023.
