 Gaussian 16, Revision B.01,
 Gaussian 16:  EM64L-G16RevB.01 20-Dec-2017

 ---------------------------------
 # TD=(NStates=1) B3LYP/6-31G(d,p)
 ---------------------------------

 -------
 ABSSPCT
 -------
 Symbolic Z-matrix:
 Charge =  0 Multiplicity = 1

                         Standard orientation:
 ---------------------------------------------------------------------
 Center     Atomic      Atomic             Coordinates (Angstroms)
 Number     Number       Type             X           Y           Z
 ---------------------------------------------------------------------
      1          6           0        1.449708    0.050868    0.002194
      2          6           0        0.741471   -1.081091    0.068065
      3          6           0       -0.589753   -1.197265    0.003892
      4          6           0       -1.461385   -0.086345   -0.076593
      5          6           0       -0.773878    1.126600    0.078447
      6          6           0        0.641336    1.192561   -0.077221
      7          1           0        2.515142    0.077227   -0.192194
      8          1           0        1.095107    2.332059    0.034116
      9          1           0       -1.362149    1.990948    0.245353
     10          1           0       -2.525257   -0.202325   -0.141039
     11          1           0       -1.166661   -2.099174   -0.007938
     12          1           0        1.398824   -2.130702    0.068999
 ---------------------------------------------------------------------

 SCF Done:  E(RB3LYP) =  -232.209386021     A.U. after   13 cycles

 Excitation energies and oscillator strengths:

 Excited State   1:      Singlet-A      5.4392 eV  227.95 nm  f=0.0085  <S**2>=0.000
      20 -> 22         0.23868
      20 -> 23         0.35000
      21 -> 22         0.51802
      21 -> 23        -0.22685
 This state for optimization and/or second-order correction.
 Total Energy, E(TD-HF/TD-DFT) =  -232.009500029
 Copying the excited state density for this state as the 1-particle RhoCI density.

 The electronic state is 1-A.
 Alpha  occ. eigenvalues --  -10.20413 -10.19189 -10.19069 -10.18927 -10.18876
 Alpha  occ. eigenvalues --  -10.18218  -0.85746  -0.75235  -0.73312  -0.60294
 Alpha  occ. eigenvalues --   -0.59013  -0.51647  -0.45811  -0.44795  -0.42072
 Alpha  occ. eigenvalues --   -0.39223  -0.37005  -0.34821  -0.31270  -0.25346
 Alpha  occ. eigenvalues --   -0.24379
 Alpha virt. eigenvalues --   -0.00725   0.00627   0.06932   0.12281   0.13520
 Alpha virt. eigenvalues --    0.15782   0.17043   0.17740   0.19501   0.28760
 Alpha virt. eigenvalues --    0.30425   0.31046   0.33896   0.46479   0.51781

 Mulliken charges:
               1
     1  C   -0.074801
     2  C   -0.065839
     3  C   -0.076502
     4  C   -0.082734
     5  C   -0.086342
     6  C   -0.101099
     7  H    0.100884
     8  H    0.067690
     9  H    0.083164
    10  H    0.094550
    11  H    0.082956
    12  H    0.058072
 Sum of Mulliken charges =  -0.00000

 Dipole moment (field-independent basis, Debye):
    X=             -0.2765    Y=             -0.0116    Z=             -0.0122  Tot=              0.2770
 Quadrupole moment (field-independent basis, Debye-Ang):
   XX=            -30.7111   YY=            -33.1520   ZZ=            -38.4904
   XY=              0.1990   XZ=             -0.3096   YZ=              0.4334

 Normal termination of Gaussian 16 at Fri Nov 10 19:01:41 2023.
