 Gaussian 16, Revision B.01,
 Gaussian 16:  EM64L-G16RevB.01 20-Dec-2017

 ---------------------------------
 # TD=(NStates=1) B3LYP/6-31G(d,p)
 ---------------------------------

 -------
 ABSSPCT
 -------
 Symbolic Z-matrix:
 Charge =  0 Multiplicity = 1

                         Standard orientation:
 ---------------------------------------------------------------------
 Center     Atomic      Atomic             Coordinates (Angstroms)
 Number     Number       Type             X           Y           Z
 ---------------------------------------------------------------------
      1          6           0       -0.558634   -1.255870   -0.112294
      2          6           0        0.795618   -1.071589    0.052627
      3          6           0        1.391861    0.133912   -0.014040
      4          6           0        0.589694    1.263254    0.019995
      5          6           0       -0.855704    1.113937    0.042482
      6          6           0       -1.362341   -0.188695    0.030007
      7          1           0       -0.961022   -2.140604   -0.071843
      8          1           0       -2.522387   -0.183609    0.112894
      9          1           0       -1.421256    2.046592   -0.142553
     10          1           0        1.083302    2.182224   -0.122862
     11          1           0        2.435195    0.106316   -0.119786
     12          1           0        1.383202   -1.980609    0.231491
 ---------------------------------------------------------------------

 SCF Done:  E(RB3LYP) =  -232.216672827     A.U. after   13 cycles

 Excitation energies and oscillator strengths:

 Excited State   1:      Singlet-A      5.4367 eV  228.05 nm  f=0.0025  <S**2>=0.000
      20 -> 22        -0.45216
      20 -> 23         0.14764
      21 -> 22         0.25514
      21 -> 23         0.45594
 This state for optimization and/or second-order correction.
 Total Energy, E(TD-HF/TD-DFT) =  -232.016876506
 Copying the excited state density for this state as the 1-particle RhoCI density.

 The electronic state is 1-A.
 Alpha  occ. eigenvalues --  -10.19228 -10.19077 -10.18677 -10.17970 -10.17590
 Alpha  occ. eigenvalues --  -10.16981  -0.85616  -0.75211  -0.73802  -0.61022
 Alpha  occ. eigenvalues --   -0.59187  -0.52581  -0.46524  -0.43845  -0.42392
 Alpha  occ. eigenvalues --   -0.41165  -0.36308  -0.34460  -0.33191  -0.25215
 Alpha  occ. eigenvalues --   -0.23849
 Alpha virt. eigenvalues --   -0.00517   0.00875   0.09108   0.13931   0.15101
 Alpha virt. eigenvalues --    0.15816   0.17980   0.18608   0.20577   0.29488
 Alpha virt. eigenvalues --    0.30295   0.32759   0.34050   0.45543   0.51968

 Mulliken charges:
               1
     1  C   -0.047516
     2  C   -0.095177
     3  C   -0.058999
     4  C   -0.100606
     5  C   -0.092987
     6  C   -0.092327
     7  H    0.073999
     8  H    0.078479
     9  H    0.091800
    10  H    0.082088
    11  H    0.083904
    12  H    0.077342
 Sum of Mulliken charges =  -0.00000

 Dipole moment (field-independent basis, Debye):
    X=              0.1007    Y=             -0.0697    Z=             -0.1017  Tot=              0.1592
 Quadrupole moment (field-independent basis, Debye-Ang):
   XX=            -31.7456   YY=            -31.6863   ZZ=            -38.1323
   XY=             -0.1108   XZ=             -0.1044   YZ=             -0.7306

 Normal termination of Gaussian 16 at Fri Nov 10 19:18:30 2023.
