 Gaussian 16, Revision B.01,
 Gaussian 16:  EM64L-G16RevB.01 20-Dec-2017

 ---------------------------------
 # TD=(NStates=1) B3LYP/6-31G(d,p)
 ---------------------------------

 -------
 ABSSPCT
 -------
 Symbolic Z-matrix:
 Charge =  0 Multiplicity = 1

                         Standard orientation:
 ---------------------------------------------------------------------
 Center     Atomic      Atomic             Coordinates (Angstroms)
 Number     Number       Type             X           Y           Z
 ---------------------------------------------------------------------
      1          6           0       -0.158022    1.355356   -0.022363
      2          6           0       -1.343091    0.563136   -0.064521
      3          6           0       -1.156729   -0.877700   -0.025255
      4          6           0        0.219178   -1.314697   -0.081279
      5          6           0        1.330005   -0.531807    0.011558
      6          6           0        1.090543    0.825852    0.030735
      7          1           0       -0.294646    2.421501    0.128165
      8          1           0        2.026192    1.588138    0.109488
      9          1           0        2.367556   -1.145339    0.022477
     10          1           0        0.241305   -2.238926    0.058799
     11          1           0       -1.916556   -1.704823    0.518134
     12          1           0       -2.315149    0.958607    0.069685
 ---------------------------------------------------------------------

 SCF Done:  E(RB3LYP) =  -232.178383838     A.U. after   14 cycles

 Excitation energies and oscillator strengths:

 Excited State   1:      Singlet-A      5.2380 eV  236.70 nm  f=0.0037  <S**2>=0.000
      20 -> 22         0.42531
      20 -> 23         0.22769
      21 -> 22        -0.34220
      21 -> 23         0.38683
 This state for optimization and/or second-order correction.
 Total Energy, E(TD-HF/TD-DFT) =  -231.985891976
 Copying the excited state density for this state as the 1-particle RhoCI density.

 The electronic state is 1-A.
 Alpha  occ. eigenvalues --  -10.20940 -10.19940 -10.19860 -10.19853 -10.19107
 Alpha  occ. eigenvalues --  -10.17070  -0.84880  -0.74653  -0.73443  -0.60526
 Alpha  occ. eigenvalues --   -0.58906  -0.51052  -0.45284  -0.44162  -0.41739
 Alpha  occ. eigenvalues --   -0.40033  -0.36033  -0.33360  -0.33123  -0.25025
 Alpha  occ. eigenvalues --   -0.24223
 Alpha virt. eigenvalues --   -0.01438   0.00060   0.06883   0.10063   0.13047
 Alpha virt. eigenvalues --    0.15217   0.16130   0.18265   0.21198   0.28296
 Alpha virt. eigenvalues --    0.29122   0.31087   0.32832   0.46774   0.50848

 Mulliken charges:
               1
     1  C   -0.070091
     2  C   -0.100323
     3  C   -0.114295
     4  C   -0.050862
     5  C   -0.068235
     6  C   -0.092340
     7  H    0.088556
     8  H    0.073853
     9  H    0.089758
    10  H    0.063999
    11  H    0.087360
    12  H    0.092619
 Sum of Mulliken charges =  -0.00000

 Dipole moment (field-independent basis, Debye):
    X=              0.0069    Y=             -0.0515    Z=              0.5359  Tot=              0.5384
 Quadrupole moment (field-independent basis, Debye-Ang):
   XX=            -32.1852   YY=            -31.7505   ZZ=            -38.4857
   XY=             -0.5095   XZ=             -0.7814   YZ=             -0.4369

 Normal termination of Gaussian 16 at Fri Nov 10 17:28:37 2023.
