 Gaussian 16, Revision B.01,
 Gaussian 16:  EM64L-G16RevB.01 20-Dec-2017

 ---------------------------------
 # TD=(NStates=1) B3LYP/6-31G(d,p)
 ---------------------------------

 -------
 ABSSPCT
 -------
 Symbolic Z-matrix:
 Charge =  0 Multiplicity = 1

                         Standard orientation:
 ---------------------------------------------------------------------
 Center     Atomic      Atomic             Coordinates (Angstroms)
 Number     Number       Type             X           Y           Z
 ---------------------------------------------------------------------
      1          6           0        0.638719    1.287663   -0.017149
      2          6           0       -0.776065    1.157974    0.073972
      3          6           0       -1.421359   -0.112004   -0.088969
      4          6           0       -0.669301   -1.216156   -0.018871
      5          6           0        0.731972   -1.153620   -0.010027
      6          6           0        1.411396   -0.004104    0.010184
      7          1           0        1.229138    2.160865    0.094317
      8          1           0        2.608008    0.096692   -0.130344
      9          1           0        1.320180   -2.071505    0.030479
     10          1           0       -1.031671   -2.151973    0.347921
     11          1           0       -2.462916    0.095342   -0.025358
     12          1           0       -1.154915    2.112066   -0.011848
 ---------------------------------------------------------------------

 SCF Done:  E(RB3LYP) =  -232.203749877     A.U. after   13 cycles

 Excitation energies and oscillator strengths:

 Excited State   1:      Singlet-A      5.3321 eV  232.53 nm  f=0.0010  <S**2>=0.000
      20 -> 22         0.49826
      21 -> 22        -0.14315
      21 -> 23        -0.47075
 This state for optimization and/or second-order correction.
 Total Energy, E(TD-HF/TD-DFT) =  -232.007799747
 Copying the excited state density for this state as the 1-particle RhoCI density.

 The electronic state is 1-A.
 Alpha  occ. eigenvalues --  -10.19900 -10.19422 -10.19016 -10.18699 -10.18603
 Alpha  occ. eigenvalues --  -10.18305  -0.84695  -0.74496  -0.73729  -0.60596
 Alpha  occ. eigenvalues --   -0.59325  -0.51611  -0.46437  -0.44164  -0.41385
 Alpha  occ. eigenvalues --   -0.41234  -0.36658  -0.33156  -0.31968  -0.25174
 Alpha  occ. eigenvalues --   -0.24151
 Alpha virt. eigenvalues --   -0.01213   0.00281   0.08916   0.12618   0.14405
 Alpha virt. eigenvalues --    0.15579   0.16940   0.18698   0.18985   0.27317
 Alpha virt. eigenvalues --    0.28561   0.31064   0.33810   0.46332   0.50535

 Mulliken charges:
               1
     1  C   -0.099608
     2  C   -0.096768
     3  C   -0.080898
     4  C   -0.084399
     5  C   -0.078747
     6  C   -0.086033
     7  H    0.091421
     8  H    0.073994
     9  H    0.084247
    10  H    0.093336
    11  H    0.095842
    12  H    0.087612
 Sum of Mulliken charges =  -0.00000

 Dipole moment (field-independent basis, Debye):
    X=              0.0266    Y=              0.1363    Z=              0.1877  Tot=              0.2335
 Quadrupole moment (field-independent basis, Debye-Ang):
   XX=            -31.9476   YY=            -31.6093   ZZ=            -38.4226
   XY=             -0.1056   XZ=             -0.3443   YZ=             -0.5643

 Normal termination of Gaussian 16 at Fri Nov 10 18:47:54 2023.
