 Gaussian 16, Revision B.01,
 Gaussian 16:  EM64L-G16RevB.01 20-Dec-2017

 ---------------------------------
 # TD=(NStates=1) B3LYP/6-31G(d,p)
 ---------------------------------

 -------
 ABSSPCT
 -------
 Symbolic Z-matrix:
 Charge =  0 Multiplicity = 1

                         Standard orientation:
 ---------------------------------------------------------------------
 Center     Atomic      Atomic             Coordinates (Angstroms)
 Number     Number       Type             X           Y           Z
 ---------------------------------------------------------------------
      1          6           0       -0.960431   -0.947929   -0.013842
      2          6           0        0.303216   -1.342367    0.017984
      3          6           0        1.317073   -0.385877   -0.035157
      4          6           0        1.020410    0.956400   -0.066880
      5          6           0       -0.305062    1.334152    0.013840
      6          6           0       -1.370290    0.401512    0.011844
      7          1           0       -1.964181   -1.745476    0.083783
      8          1           0       -2.302840    0.794325   -0.099825
      9          1           0       -0.531237    2.459892    0.100933
     10          1           0        1.892080    1.623647    0.215886
     11          1           0        2.300611   -0.921107    0.116574
     12          1           0        0.576078   -2.306626    0.015913
 ---------------------------------------------------------------------

 SCF Done:  E(RB3LYP) =  -232.204675466     A.U. after   13 cycles

 Excitation energies and oscillator strengths:

 Excited State   1:      Singlet-A      5.5773 eV  222.30 nm  f=0.0006  <S**2>=0.000
      20 -> 22         0.50186
      21 -> 22         0.11881
      21 -> 23         0.47674
 This state for optimization and/or second-order correction.
 Total Energy, E(TD-HF/TD-DFT) =  -231.999715283
 Copying the excited state density for this state as the 1-particle RhoCI density.

 The electronic state is 1-A.
 Alpha  occ. eigenvalues --  -10.20210 -10.19647 -10.19134 -10.19070 -10.18743
 Alpha  occ. eigenvalues --  -10.17319  -0.85754  -0.74949  -0.74175  -0.60473
 Alpha  occ. eigenvalues --   -0.59445  -0.51869  -0.46055  -0.44038  -0.41830
 Alpha  occ. eigenvalues --   -0.40376  -0.36623  -0.35054  -0.31269  -0.25635
 Alpha  occ. eigenvalues --   -0.24628
 Alpha virt. eigenvalues --   -0.00671   0.00705   0.07088   0.11253   0.13939
 Alpha virt. eigenvalues --    0.15381   0.17281   0.18355   0.20022   0.29119
 Alpha virt. eigenvalues --    0.29388   0.31834   0.34905   0.45197   0.51843

 Mulliken charges:
               1
     1  C   -0.082741
     2  C   -0.048402
     3  C   -0.092704
     4  C   -0.086070
     5  C   -0.104337
     6  C   -0.063257
     7  H    0.051132
     8  H    0.091462
     9  H    0.079530
    10  H    0.089403
    11  H    0.084858
    12  H    0.081127
 Sum of Mulliken charges =  -0.00000

 Dipole moment (field-independent basis, Debye):
    X=              0.0928    Y=             -0.0062    Z=              0.2334  Tot=              0.2513
 Quadrupole moment (field-independent basis, Debye-Ang):
   XX=            -31.9478   YY=            -32.1850   ZZ=            -38.4207
   XY=             -1.0643   XZ=              0.6384   YZ=              0.1745

 Normal termination of Gaussian 16 at Fri Nov 10 19:29:47 2023.
