 Gaussian 16, Revision B.01,
 Gaussian 16:  EM64L-G16RevB.01 20-Dec-2017

 ---------------------------------
 # TD=(NStates=1) B3LYP/6-31G(d,p)
 ---------------------------------

 -------
 ABSSPCT
 -------
 Symbolic Z-matrix:
 Charge =  0 Multiplicity = 1

                         Standard orientation:
 ---------------------------------------------------------------------
 Center     Atomic      Atomic             Coordinates (Angstroms)
 Number     Number       Type             X           Y           Z
 ---------------------------------------------------------------------
      1          6           0       -0.806557    1.104743   -0.032859
      2          6           0       -1.376207   -0.151850    0.055743
      3          6           0       -0.612424   -1.254487   -0.044851
      4          6           0        0.782108   -1.136500   -0.065505
      5          6           0        1.418124    0.119223   -0.010686
      6          6           0        0.586572    1.244281    0.006441
      7          1           0       -1.308250    2.145690    0.018833
      8          1           0        0.933205    2.324615    0.006957
      9          1           0        2.411099    0.170454    0.269089
     10          1           0        1.522059   -1.937722    0.035073
     11          1           0       -1.101469   -2.168110    0.274596
     12          1           0       -2.406336   -0.087386   -0.054243
 ---------------------------------------------------------------------

 SCF Done:  E(RB3LYP) =  -232.223078471     A.U. after   12 cycles

 Excitation energies and oscillator strengths:

 Excited State   1:      Singlet-A      5.4446 eV  227.72 nm  f=0.0002  <S**2>=0.000
      20 -> 22         0.45705
      20 -> 23        -0.19185
      21 -> 22         0.21427
      21 -> 23         0.45593
 This state for optimization and/or second-order correction.
 Total Energy, E(TD-HF/TD-DFT) =  -232.022992321
 Copying the excited state density for this state as the 1-particle RhoCI density.

 The electronic state is 1-A.
 Alpha  occ. eigenvalues --  -10.19220 -10.18980 -10.18877 -10.18668 -10.18464
 Alpha  occ. eigenvalues --  -10.17856  -0.85311  -0.75014  -0.73754  -0.60530
 Alpha  occ. eigenvalues --   -0.59502  -0.51923  -0.45870  -0.44337  -0.41989
 Alpha  occ. eigenvalues --   -0.40796  -0.36161  -0.33924  -0.32995  -0.25007
 Alpha  occ. eigenvalues --   -0.24568
 Alpha virt. eigenvalues --   -0.00267  -0.00021   0.08391   0.13078   0.14740
 Alpha virt. eigenvalues --    0.15688   0.17750   0.18811   0.19550   0.29017
 Alpha virt. eigenvalues --    0.30528   0.31452   0.33129   0.46403   0.50041

 Mulliken charges:
               1
     1  C   -0.081740
     2  C   -0.079284
     3  C   -0.090594
     4  C   -0.096922
     5  C   -0.078327
     6  C   -0.086179
     7  H    0.079820
     8  H    0.077125
     9  H    0.090256
    10  H    0.085591
    11  H    0.091500
    12  H    0.088754
 Sum of Mulliken charges =  -0.00000

 Dipole moment (field-independent basis, Debye):
    X=              0.0738    Y=              0.0868    Z=              0.3501  Tot=              0.3682
 Quadrupole moment (field-independent basis, Debye-Ang):
   XX=            -31.7021   YY=            -32.0941   ZZ=            -38.2613
   XY=             -0.3495   XZ=              0.4674   YZ=             -0.4760

 Normal termination of Gaussian 16 at Fri Nov 10 18:25:25 2023.
