 Gaussian 16, Revision B.01,
 Gaussian 16:  EM64L-G16RevB.01 20-Dec-2017

 ---------------------------------
 # TD=(NStates=1) B3LYP/6-31G(d,p)
 ---------------------------------

 -------
 ABSSPCT
 -------
 Symbolic Z-matrix:
 Charge =  0 Multiplicity = 1

                         Standard orientation:
 ---------------------------------------------------------------------
 Center     Atomic      Atomic             Coordinates (Angstroms)
 Number     Number       Type             X           Y           Z
 ---------------------------------------------------------------------
      1          6           0        0.843535    1.071418    0.034309
      2          6           0       -0.521020    1.289449    0.031659
      3          6           0       -1.437302    0.121291   -0.051539
      4          6           0       -0.860992   -1.136778    0.033543
      5          6           0        0.592370   -1.276804    0.002673
      6          6           0        1.390092   -0.133326   -0.095858
      7          1           0        1.396555    2.056517    0.135141
      8          1           0        2.406375   -0.364775   -0.153163
      9          1           0        0.937569   -2.186409    0.324211
     10          1           0       -1.418450   -2.011764    0.022032
     11          1           0       -2.563139    0.596914   -0.173329
     12          1           0       -0.799015    2.298016    0.116386
 ---------------------------------------------------------------------

 SCF Done:  E(RB3LYP) =  -232.204654888     A.U. after   13 cycles

 Excitation energies and oscillator strengths:

 Excited State   1:      Singlet-A      5.3211 eV  233.00 nm  f=0.0017  <S**2>=0.000
      20 -> 22         0.49062
      21 -> 22        -0.15963
      21 -> 23        -0.47673
 This state for optimization and/or second-order correction.
 Total Energy, E(TD-HF/TD-DFT) =  -232.009106997
 Copying the excited state density for this state as the 1-particle RhoCI density.

 The electronic state is 1-A.
 Alpha  occ. eigenvalues --  -10.21017 -10.19162 -10.18731 -10.18649 -10.18412
 Alpha  occ. eigenvalues --  -10.18098  -0.84577  -0.74502  -0.73557  -0.60569
 Alpha  occ. eigenvalues --   -0.59355  -0.51725  -0.46509  -0.44587  -0.40938
 Alpha  occ. eigenvalues --   -0.40466  -0.36994  -0.34894  -0.31234  -0.25407
 Alpha  occ. eigenvalues --   -0.23566
 Alpha virt. eigenvalues --   -0.01347   0.00768   0.08300   0.11740   0.14520
 Alpha virt. eigenvalues --    0.15565   0.16861   0.19339   0.19789   0.26705
 Alpha virt. eigenvalues --    0.29923   0.31588   0.33350   0.46319   0.51833

 Mulliken charges:
               1
     1  C   -0.060890
     2  C   -0.094405
     3  C   -0.078634
     4  C   -0.107458
     5  C   -0.096870
     6  C   -0.077030
     7  H    0.076579
     8  H    0.084727
     9  H    0.093935
    10  H    0.088324
    11  H    0.085724
    12  H    0.085998
 Sum of Mulliken charges =  -0.00000

 Dipole moment (field-independent basis, Debye):
    X=              0.1341    Y=              0.0471    Z=              0.1748  Tot=              0.2253
 Quadrupole moment (field-independent basis, Debye-Ang):
   XX=            -32.4278   YY=            -30.9448   ZZ=            -38.4523
   XY=             -0.6658   XZ=              0.3293   YZ=             -0.3033

 Normal termination of Gaussian 16 at Fri Nov 10 18:08:30 2023.
