 Gaussian 16, Revision B.01,
 Gaussian 16:  EM64L-G16RevB.01 20-Dec-2017

 ---------------------------------
 # TD=(NStates=1) B3LYP/6-31G(d,p)
 ---------------------------------

 -------
 ABSSPCT
 -------
 Symbolic Z-matrix:
 Charge =  0 Multiplicity = 1

                         Standard orientation:
 ---------------------------------------------------------------------
 Center     Atomic      Atomic             Coordinates (Angstroms)
 Number     Number       Type             X           Y           Z
 ---------------------------------------------------------------------
      1          6           0       -1.410088    0.269027   -0.050322
      2          6           0       -0.417801    1.345794    0.054864
      3          6           0        0.931362    1.061278   -0.040154
      4          6           0        1.440913   -0.295588   -0.012509
      5          6           0        0.414362   -1.356217    0.039941
      6          6           0       -0.968649   -1.050387   -0.011462
      7          1           0       -2.427157    0.433974    0.027868
      8          1           0       -1.698041   -1.795705   -0.097169
      9          1           0        0.926903   -2.300116    0.157996
     10          1           0        2.595556   -0.389634   -0.078514
     11          1           0        1.584712    1.823223   -0.024841
     12          1           0       -0.922567    2.384813    0.132514
 ---------------------------------------------------------------------

 SCF Done:  E(RB3LYP) =  -232.218791835     A.U. after   13 cycles

 Excitation energies and oscillator strengths:

 Excited State   1:      Singlet-A      5.2036 eV  238.27 nm  f=0.0006  <S**2>=0.000
      20 -> 22         0.50538
      21 -> 23         0.48242
 This state for optimization and/or second-order correction.
 Total Energy, E(TD-HF/TD-DFT) =  -232.027563375
 Copying the excited state density for this state as the 1-particle RhoCI density.

 The electronic state is 1-A.
 Alpha  occ. eigenvalues --  -10.20790 -10.20035 -10.19985 -10.19035 -10.18833
 Alpha  occ. eigenvalues --  -10.18439  -0.83250  -0.74331  -0.72511  -0.59786
 Alpha  occ. eigenvalues --   -0.59584  -0.51284  -0.46880  -0.43957  -0.41678
 Alpha  occ. eigenvalues --   -0.39783  -0.35542  -0.35081  -0.32110  -0.24920
 Alpha  occ. eigenvalues --   -0.23604
 Alpha virt. eigenvalues --   -0.01385   0.00259   0.08873   0.13237   0.14029
 Alpha virt. eigenvalues --    0.14975   0.16243   0.18669   0.19270   0.27223
 Alpha virt. eigenvalues --    0.27635   0.30185   0.32366   0.46236   0.50522

 Mulliken charges:
               1
     1  C   -0.088264
     2  C   -0.087530
     3  C   -0.071798
     4  C   -0.106629
     5  C   -0.100343
     6  C   -0.073587
     7  H    0.087241
     8  H    0.087931
     9  H    0.091617
    10  H    0.097397
    11  H    0.079957
    12  H    0.084009
 Sum of Mulliken charges =  -0.00000

 Dipole moment (field-independent basis, Debye):
    X=             -0.0074    Y=              0.0215    Z=              0.0672  Tot=              0.0709
 Quadrupole moment (field-independent basis, Debye-Ang):
   XX=            -30.3616   YY=            -32.2784   ZZ=            -38.8566
   XY=             -0.0608   XZ=             -0.1000   YZ=              0.0752

 Normal termination of Gaussian 16 at Fri Nov 10 16:49:10 2023.
