 Gaussian 16, Revision B.01,
 Gaussian 16:  EM64L-G16RevB.01 20-Dec-2017

 ---------------------------------
 # TD=(NStates=1) B3LYP/6-31G(d,p)
 ---------------------------------

 -------
 ABSSPCT
 -------
 Symbolic Z-matrix:
 Charge =  0 Multiplicity = 1

                         Standard orientation:
 ---------------------------------------------------------------------
 Center     Atomic      Atomic             Coordinates (Angstroms)
 Number     Number       Type             X           Y           Z
 ---------------------------------------------------------------------
      1          6           0       -1.084734    0.806101    0.091311
      2          6           0       -1.366835   -0.457757   -0.044306
      3          6           0       -0.226331   -1.339093    0.015391
      4          6           0        1.121856   -0.881602    0.004970
      5          6           0        1.347056    0.479515   -0.026401
      6          6           0        0.200413    1.391488   -0.019592
      7          1           0       -1.841689    1.464526   -0.127701
      8          1           0        0.390906    2.417879    0.052817
      9          1           0        2.353421    0.861472   -0.048883
     10          1           0        1.770707   -1.544155    0.065046
     11          1           0       -0.268187   -2.394642    0.017134
     12          1           0       -2.353705   -0.797000   -0.086651
 ---------------------------------------------------------------------

 SCF Done:  E(RB3LYP) =  -232.201359426     A.U. after   13 cycles

 Excitation energies and oscillator strengths:

 Excited State   1:      Singlet-A      5.3945 eV  229.83 nm  f=0.0012  <S**2>=0.000
      20 -> 22        -0.48035
      21 -> 23         0.50978
 This state for optimization and/or second-order correction.
 Total Energy, E(TD-HF/TD-DFT) =  -232.003113579
 Copying the excited state density for this state as the 1-particle RhoCI density.

 The electronic state is 1-A.
 Alpha  occ. eigenvalues --  -10.19055 -10.18941 -10.18747 -10.18078 -10.17196
 Alpha  occ. eigenvalues --  -10.17160  -0.84665  -0.75937  -0.72843  -0.61004
 Alpha  occ. eigenvalues --   -0.60050  -0.52829  -0.47404  -0.44130  -0.43096
 Alpha  occ. eigenvalues --   -0.40887  -0.36011  -0.34577  -0.32813  -0.25802
 Alpha  occ. eigenvalues --   -0.23234
 Alpha virt. eigenvalues --   -0.01215   0.01045   0.10851   0.15117   0.15277
 Alpha virt. eigenvalues --    0.16083   0.17813   0.19863   0.21146   0.27844
 Alpha virt. eigenvalues --    0.29194   0.31924   0.33028   0.46119   0.48762

 Mulliken charges:
               1
     1  C   -0.080830
     2  C   -0.060880
     3  C   -0.111095
     4  C   -0.024367
     5  C   -0.096171
     6  C   -0.095008
     7  H    0.076614
     8  H    0.088755
     9  H    0.080924
    10  H    0.058640
    11  H    0.074429
    12  H    0.088988
 Sum of Mulliken charges =  -0.00000

 Dipole moment (field-independent basis, Debye):
    X=              0.0615    Y=             -0.0916    Z=             -0.0725  Tot=              0.1320
 Quadrupole moment (field-independent basis, Debye-Ang):
   XX=            -31.1823   YY=            -31.5593   ZZ=            -38.1714
   XY=             -0.0753   XZ=              0.4059   YZ=             -0.1425

 Normal termination of Gaussian 16 at Fri Nov 10 19:15:09 2023.
