 Gaussian 16, Revision B.01,
 Gaussian 16:  EM64L-G16RevB.01 20-Dec-2017

 ---------------------------------
 # TD=(NStates=1) B3LYP/6-31G(d,p)
 ---------------------------------

 -------
 ABSSPCT
 -------
 Symbolic Z-matrix:
 Charge =  0 Multiplicity = 1

                         Standard orientation:
 ---------------------------------------------------------------------
 Center     Atomic      Atomic             Coordinates (Angstroms)
 Number     Number       Type             X           Y           Z
 ---------------------------------------------------------------------
      1          6           0        1.354070    0.438024   -0.002144
      2          6           0        0.314110    1.331790    0.031767
      3          6           0       -1.079460    0.969175   -0.097679
      4          6           0       -1.310822   -0.467172    0.028509
      5          6           0       -0.309614   -1.322380    0.034977
      6          6           0        1.039925   -0.948116   -0.056080
      7          1           0        2.446153    0.800079   -0.010236
      8          1           0        1.849339   -1.784535   -0.045228
      9          1           0       -0.563512   -2.253292    0.132301
     10          1           0       -2.437323   -0.792655    0.037566
     11          1           0       -1.906142    1.671846   -0.039919
     12          1           0        0.562228    2.350629    0.289419
 ---------------------------------------------------------------------

 SCF Done:  E(RB3LYP) =  -232.215677627     A.U. after   14 cycles

 Excitation energies and oscillator strengths:

 Excited State   1:      Singlet-A      5.3793 eV  230.48 nm  f=0.0032  <S**2>=0.000
      20 -> 22         0.54473
      21 -> 23         0.44147
 This state for optimization and/or second-order correction.
 Total Energy, E(TD-HF/TD-DFT) =  -232.017990755
 Copying the excited state density for this state as the 1-particle RhoCI density.

 The electronic state is 1-A.
 Alpha  occ. eigenvalues --  -10.20048 -10.19863 -10.19652 -10.19352 -10.19064
 Alpha  occ. eigenvalues --  -10.16906  -0.84705  -0.75126  -0.72757  -0.60643
 Alpha  occ. eigenvalues --   -0.58500  -0.51600  -0.45553  -0.43795  -0.41917
 Alpha  occ. eigenvalues --   -0.40713  -0.36187  -0.34948  -0.32158  -0.25387
 Alpha  occ. eigenvalues --   -0.23788
 Alpha virt. eigenvalues --   -0.01552   0.01295   0.08268   0.12587   0.14138
 Alpha virt. eigenvalues --    0.15267   0.16842   0.17966   0.19884   0.28043
 Alpha virt. eigenvalues --    0.28816   0.31259   0.33578   0.46880   0.51341

 Mulliken charges:
               1
     1  C   -0.083785
     2  C   -0.092457
     3  C   -0.096143
     4  C   -0.096068
     5  C   -0.034188
     6  C   -0.100050
     7  H    0.089919
     8  H    0.085062
     9  H    0.071138
    10  H    0.078256
    11  H    0.094129
    12  H    0.084187
 Sum of Mulliken charges =  -0.00000

 Dipole moment (field-independent basis, Debye):
    X=             -0.0360    Y=             -0.0393    Z=              0.2256  Tot=              0.2318
 Quadrupole moment (field-independent basis, Debye-Ang):
   XX=            -31.3591   YY=            -31.8539   ZZ=            -38.5968
   XY=             -0.1565   XZ=             -0.0211   YZ=              0.2747

 Normal termination of Gaussian 16 at Fri Nov 10 18:50:32 2023.
