 Gaussian 16, Revision B.01,
 Gaussian 16:  EM64L-G16RevB.01 20-Dec-2017

 ---------------------------------
 # TD=(NStates=1) B3LYP/6-31G(d,p)
 ---------------------------------

 -------
 ABSSPCT
 -------
 Symbolic Z-matrix:
 Charge =  0 Multiplicity = 1

                         Standard orientation:
 ---------------------------------------------------------------------
 Center     Atomic      Atomic             Coordinates (Angstroms)
 Number     Number       Type             X           Y           Z
 ---------------------------------------------------------------------
      1          6           0        0.122216    1.390642    0.006107
      2          6           0       -1.108486    0.818729   -0.008988
      3          6           0       -1.265918   -0.556770    0.029882
      4          6           0       -0.187518   -1.341125   -0.017973
      5          6           0        1.109470   -0.803457   -0.020858
      6          6           0        1.313539    0.545046   -0.020129
      7          1           0        0.223240    2.454635    0.153749
      8          1           0        2.353255    0.834511   -0.095773
      9          1           0        1.947415   -1.529239    0.138222
     10          1           0       -0.214294   -2.265435    0.181209
     11          1           0       -2.152044   -1.123325   -0.197797
     12          1           0       -2.057390    1.310454    0.012137
 ---------------------------------------------------------------------

 SCF Done:  E(RB3LYP) =  -232.213234954     A.U. after   13 cycles

 Excitation energies and oscillator strengths:

 Excited State   1:      Singlet-A      5.5553 eV  223.18 nm  f=0.0011  <S**2>=0.000
      20 -> 22         0.47396
      20 -> 23         0.17640
      21 -> 22        -0.23165
      21 -> 23         0.43604
 This state for optimization and/or second-order correction.
 Total Energy, E(TD-HF/TD-DFT) =  -232.009081291
 Copying the excited state density for this state as the 1-particle RhoCI density.

 The electronic state is 1-A.
 Alpha  occ. eigenvalues --  -10.19323 -10.19111 -10.18228 -10.18225 -10.17513
 Alpha  occ. eigenvalues --  -10.16077  -0.85485  -0.74725  -0.74650  -0.61122
 Alpha  occ. eigenvalues --   -0.59526  -0.52564  -0.46300  -0.44277  -0.41968
 Alpha  occ. eigenvalues --   -0.41526  -0.37216  -0.33456  -0.32954  -0.25085
 Alpha  occ. eigenvalues --   -0.24635
 Alpha virt. eigenvalues --   -0.00306   0.00722   0.09874   0.13878   0.15104
 Alpha virt. eigenvalues --    0.16472   0.17258   0.18424   0.21793   0.28979
 Alpha virt. eigenvalues --    0.30514   0.32616   0.33454   0.46398   0.51259

 Mulliken charges:
               1
     1  C   -0.099733
     2  C   -0.075614
     3  C   -0.090255
     4  C   -0.043844
     5  C   -0.091163
     6  C   -0.089888
     7  H    0.088197
     8  H    0.090072
     9  H    0.077422
    10  H    0.064879
    11  H    0.084736
    12  H    0.085190
 Sum of Mulliken charges =  -0.00000

 Dipole moment (field-independent basis, Debye):
    X=              0.0361    Y=             -0.1269    Z=              0.1103  Tot=              0.1720
 Quadrupole moment (field-independent basis, Debye-Ang):
   XX=            -31.5368   YY=            -31.8612   ZZ=            -38.0424
   XY=              0.0102   XZ=              0.3550   YZ=             -0.0460

 Normal termination of Gaussian 16 at Fri Nov 10 16:29:31 2023.
