 Gaussian 16, Revision B.01,
 Gaussian 16:  EM64L-G16RevB.01 20-Dec-2017

 ---------------------------------
 # TD=(NStates=1) B3LYP/6-31G(d,p)
 ---------------------------------

 -------
 ABSSPCT
 -------
 Symbolic Z-matrix:
 Charge =  0 Multiplicity = 1

                         Standard orientation:
 ---------------------------------------------------------------------
 Center     Atomic      Atomic             Coordinates (Angstroms)
 Number     Number       Type             X           Y           Z
 ---------------------------------------------------------------------
      1          6           0       -1.301074   -0.551542    0.044110
      2          6           0       -0.166286   -1.366488   -0.085637
      3          6           0        1.093227   -0.866074   -0.079975
      4          6           0        1.327387    0.576557    0.055503
      5          6           0        0.200658    1.343887    0.093743
      6          6           0       -1.138851    0.845798   -0.066330
      7          1           0       -2.339506   -0.840673    0.196494
      8          1           0       -1.847262    1.527341   -0.101685
      9          1           0        0.253425    2.509691   -0.225067
     10          1           0        2.259417    0.801886    0.029807
     11          1           0        2.054639   -1.522203    0.076520
     12          1           0       -0.471077   -2.368868    0.255436
 ---------------------------------------------------------------------

 SCF Done:  E(RB3LYP) =  -232.187319408     A.U. after   13 cycles

 Excitation energies and oscillator strengths:

 Excited State   1:      Singlet-A      5.2192 eV  237.55 nm  f=0.0000  <S**2>=0.000
      20 -> 22         0.50206
      21 -> 23         0.49678
 This state for optimization and/or second-order correction.
 Total Energy, E(TD-HF/TD-DFT) =  -231.995516263
 Copying the excited state density for this state as the 1-particle RhoCI density.

 The electronic state is 1-A.
 Alpha  occ. eigenvalues --  -10.20105 -10.19879 -10.19256 -10.18928 -10.18330
 Alpha  occ. eigenvalues --  -10.18217  -0.84641  -0.74588  -0.73897  -0.60916
 Alpha  occ. eigenvalues --   -0.59380  -0.52210  -0.46680  -0.43985  -0.42048
 Alpha  occ. eigenvalues --   -0.40451  -0.35973  -0.34942  -0.31268  -0.25109
 Alpha  occ. eigenvalues --   -0.24122
 Alpha virt. eigenvalues --   -0.01310  -0.00350   0.08549   0.12289   0.13785
 Alpha virt. eigenvalues --    0.14715   0.17480   0.19313   0.20040   0.26887
 Alpha virt. eigenvalues --    0.29177   0.31110   0.34397   0.45533   0.50711

 Mulliken charges:
               1
     1  C   -0.092951
     2  C   -0.083401
     3  C   -0.108429
     4  C   -0.036264
     5  C   -0.104134
     6  C   -0.058256
     7  H    0.090653
     8  H    0.079773
     9  H    0.063154
    10  H    0.076841
    11  H    0.082417
    12  H    0.090598
 Sum of Mulliken charges =  -0.00000

 Dipole moment (field-independent basis, Debye):
    X=             -0.1152    Y=             -0.0044    Z=              0.1644  Tot=              0.2007
 Quadrupole moment (field-independent basis, Debye-Ang):
   XX=            -30.7931   YY=            -33.1601   ZZ=            -38.3633
   XY=             -0.2432   XZ=             -0.1560   YZ=             -1.2599

 Normal termination of Gaussian 16 at Fri Nov 10 17:50:42 2023.
