 Gaussian 16, Revision B.01,
 Gaussian 16:  EM64L-G16RevB.01 20-Dec-2017

 ---------------------------------
 # TD=(NStates=1) B3LYP/6-31G(d,p)
 ---------------------------------

 -------
 ABSSPCT
 -------
 Symbolic Z-matrix:
 Charge =  0 Multiplicity = 1

                         Standard orientation:
 ---------------------------------------------------------------------
 Center     Atomic      Atomic             Coordinates (Angstroms)
 Number     Number       Type             X           Y           Z
 ---------------------------------------------------------------------
      1          6           0        1.362280   -0.112116   -0.017214
      2          6           0        0.861653    1.189857   -0.041533
      3          6           0       -0.682055    1.222085    0.015284
      4          6           0       -1.401615    0.068223   -0.043809
      5          6           0       -0.811886   -1.140598   -0.013120
      6          6           0        0.628486   -1.234525   -0.006000
      7          1           0        2.485159   -0.256050    0.035279
      8          1           0        1.177247   -2.044703    0.024389
      9          1           0       -1.219495   -2.160399    0.250096
     10          1           0       -2.480678    0.174553    0.017172
     11          1           0       -1.131745    2.305612    0.080209
     12          1           0        1.428334    2.023438    0.231208
 ---------------------------------------------------------------------

 SCF Done:  E(RB3LYP) =  -232.202979167     A.U. after   14 cycles

 Excitation energies and oscillator strengths:

 Excited State   1:      Singlet-A      5.3930 eV  229.90 nm  f=0.0069  <S**2>=0.000
      20 -> 22         0.51276
      21 -> 22        -0.18267
      21 -> 23         0.44711
 This state for optimization and/or second-order correction.
 Total Energy, E(TD-HF/TD-DFT) =  -232.004789949
 Copying the excited state density for this state as the 1-particle RhoCI density.

 The electronic state is 1-A.
 Alpha  occ. eigenvalues --  -10.20718 -10.19545 -10.19509 -10.18711 -10.18449
 Alpha  occ. eigenvalues --  -10.17305  -0.84773  -0.75598  -0.72716  -0.61426
 Alpha  occ. eigenvalues --   -0.58166  -0.52069  -0.46053  -0.44045  -0.42121
 Alpha  occ. eigenvalues --   -0.40538  -0.36687  -0.34743  -0.31142  -0.26161
 Alpha  occ. eigenvalues --   -0.23307
 Alpha virt. eigenvalues --   -0.02164   0.01676   0.08563   0.13196   0.13855
 Alpha virt. eigenvalues --    0.15402   0.17201   0.17372   0.20756   0.25684
 Alpha virt. eigenvalues --    0.28910   0.31832   0.34390   0.46567   0.50910

 Mulliken charges:
               1
     1  C   -0.080221
     2  C   -0.099389
     3  C   -0.114511
     4  C   -0.065190
     5  C   -0.095028
     6  C   -0.049838
     7  H    0.069067
     8  H    0.072744
     9  H    0.092167
    10  H    0.089284
    11  H    0.084615
    12  H    0.096300
 Sum of Mulliken charges =  -0.00000

 Dipole moment (field-independent basis, Debye):
    X=              0.0659    Y=             -0.0817    Z=              0.3984  Tot=              0.4120
 Quadrupole moment (field-independent basis, Debye-Ang):
   XX=            -32.0418   YY=            -31.3935   ZZ=            -38.4642
   XY=             -0.3000   XZ=              0.0662   YZ=              0.0870

 Normal termination of Gaussian 16 at Fri Nov 10 17:41:09 2023.
