 Gaussian 16, Revision B.01,
 Gaussian 16:  EM64L-G16RevB.01 20-Dec-2017

 ---------------------------------
 # TD=(NStates=1) B3LYP/6-31G(d,p)
 ---------------------------------

 -------
 ABSSPCT
 -------
 Symbolic Z-matrix:
 Charge =  0 Multiplicity = 1

                         Standard orientation:
 ---------------------------------------------------------------------
 Center     Atomic      Atomic             Coordinates (Angstroms)
 Number     Number       Type             X           Y           Z
 ---------------------------------------------------------------------
      1          6           0       -0.484935   -1.312815   -0.040959
      2          6           0        0.962796   -1.099568    0.018998
      3          6           0        1.366372    0.243915   -0.026092
      4          6           0        0.472791    1.341520    0.016864
      5          6           0       -0.908016    1.083605   -0.017723
      6          6           0       -1.420858   -0.214207    0.024150
      7          1           0       -0.712004   -2.274852   -0.316339
      8          1           0       -2.633906   -0.736312    0.220355
      9          1           0       -1.543447    1.938019    0.022099
     10          1           0        0.965385    2.243278   -0.096670
     11          1           0        2.401520    0.422597    0.025394
     12          1           0        1.593542   -1.847432    0.293736
 ---------------------------------------------------------------------

 SCF Done:  E(RB3LYP) =  -232.191722781     A.U. after   13 cycles

 Excitation energies and oscillator strengths:

 Excited State   1:      Singlet-A      5.0995 eV  243.13 nm  f=0.0005  <S**2>=0.000
      20 -> 22         0.50553
      21 -> 22        -0.11496
      21 -> 23        -0.47197
 This state for optimization and/or second-order correction.
 Total Energy, E(TD-HF/TD-DFT) =  -232.004319780
 Copying the excited state density for this state as the 1-particle RhoCI density.

 The electronic state is 1-A.
 Alpha  occ. eigenvalues --  -10.21825 -10.19620 -10.19190 -10.18795 -10.18604
 Alpha  occ. eigenvalues --  -10.18401  -0.83793  -0.74143  -0.73346  -0.60711
 Alpha  occ. eigenvalues --   -0.59174  -0.51197  -0.47364  -0.43789  -0.42118
 Alpha  occ. eigenvalues --   -0.39607  -0.36510  -0.33716  -0.32294  -0.24603
 Alpha  occ. eigenvalues --   -0.23740
 Alpha virt. eigenvalues --   -0.01436  -0.00203   0.05932   0.12881   0.13598
 Alpha virt. eigenvalues --    0.16313   0.16564   0.18255   0.20417   0.27366
 Alpha virt. eigenvalues --    0.29548   0.29974   0.32240   0.46825   0.48949

 Mulliken charges:
               1
     1  C   -0.099316
     2  C   -0.080567
     3  C   -0.091929
     4  C   -0.064210
     5  C   -0.108855
     6  C   -0.072083
     7  H    0.091859
     8  H    0.076525
     9  H    0.090264
    10  H    0.089465
    11  H    0.076602
    12  H    0.092246
 Sum of Mulliken charges =  -0.00000

 Dipole moment (field-independent basis, Debye):
    X=              0.2689    Y=             -0.0790    Z=              0.0793  Tot=              0.2912
 Quadrupole moment (field-independent basis, Debye-Ang):
   XX=            -32.0591   YY=            -31.2323   ZZ=            -38.5796
   XY=              0.2710   XZ=              0.0904   YZ=             -0.1605

 Normal termination of Gaussian 16 at Fri Nov 10 19:30:40 2023.
