 Gaussian 16, Revision B.01,
 Gaussian 16:  EM64L-G16RevB.01 20-Dec-2017

 ---------------------------------
 # TD=(NStates=1) B3LYP/6-31G(d,p)
 ---------------------------------

 -------
 ABSSPCT
 -------
 Symbolic Z-matrix:
 Charge =  0 Multiplicity = 1

                         Standard orientation:
 ---------------------------------------------------------------------
 Center     Atomic      Atomic             Coordinates (Angstroms)
 Number     Number       Type             X           Y           Z
 ---------------------------------------------------------------------
      1          6           0       -0.067589   -1.347286    0.004225
      2          6           0        1.138760   -0.737576   -0.024663
      3          6           0        1.238715    0.608964   -0.016308
      4          6           0        0.061190    1.383423   -0.056005
      5          6           0       -1.144804    0.747334   -0.002176
      6          6           0       -1.237205   -0.683822    0.018230
      7          1           0       -0.141126   -2.313575   -0.007708
      8          1           0       -2.228098   -1.121671    0.012959
      9          1           0       -2.109045    1.350183    0.031574
     10          1           0        0.018574    2.507231    0.192436
     11          1           0        2.285562    1.048109    0.130086
     12          1           0        2.239724   -1.296497    0.100842
 ---------------------------------------------------------------------

 SCF Done:  E(RB3LYP) =  -232.211887426     A.U. after   13 cycles

 Excitation energies and oscillator strengths:

 Excited State   1:      Singlet-A      5.6850 eV  218.09 nm  f=0.0008  <S**2>=0.000
      20 -> 22         0.43927
      20 -> 23        -0.23350
      21 -> 22         0.27832
      21 -> 23         0.41778
 This state for optimization and/or second-order correction.
 Total Energy, E(TD-HF/TD-DFT) =  -232.002966011
 Copying the excited state density for this state as the 1-particle RhoCI density.

 The electronic state is 1-A.
 Alpha  occ. eigenvalues --  -10.19278 -10.19230 -10.19133 -10.19068 -10.18662
 Alpha  occ. eigenvalues --  -10.16981  -0.86014  -0.75071  -0.74130  -0.60559
 Alpha  occ. eigenvalues --   -0.58931  -0.52002  -0.45122  -0.44414  -0.42109
 Alpha  occ. eigenvalues --   -0.40134  -0.36826  -0.34234  -0.32464  -0.25375
 Alpha  occ. eigenvalues --   -0.24890
 Alpha virt. eigenvalues --    0.00042   0.00804   0.06746   0.11978   0.14101
 Alpha virt. eigenvalues --    0.15883   0.17915   0.18177   0.19798   0.28876
 Alpha virt. eigenvalues --    0.31207   0.32353   0.34293   0.45947   0.51977

 Mulliken charges:
               1
     1  C   -0.065418
     2  C   -0.063941
     3  C   -0.093162
     4  C   -0.084194
     5  C   -0.098764
     6  C   -0.074324
     7  H    0.070726
     8  H    0.089676
     9  H    0.078954
    10  H    0.084671
    11  H    0.085565
    12  H    0.070209
 Sum of Mulliken charges =  -0.00000

 Dipole moment (field-independent basis, Debye):
    X=             -0.1563    Y=             -0.1023    Z=              0.2602  Tot=              0.3203
 Quadrupole moment (field-independent basis, Debye-Ang):
   XX=            -31.3984   YY=            -32.4012   ZZ=            -38.3649
   XY=              0.2259   XZ=              0.3313   YZ=              0.4575

 Normal termination of Gaussian 16 at Fri Nov 10 19:19:13 2023.
