 Gaussian 16, Revision B.01,
 Gaussian 16:  EM64L-G16RevB.01 20-Dec-2017

 ---------------------------------
 # TD=(NStates=1) B3LYP/6-31G(d,p)
 ---------------------------------

 -------
 ABSSPCT
 -------
 Symbolic Z-matrix:
 Charge =  0 Multiplicity = 1

                         Standard orientation:
 ---------------------------------------------------------------------
 Center     Atomic      Atomic             Coordinates (Angstroms)
 Number     Number       Type             X           Y           Z
 ---------------------------------------------------------------------
      1          6           0        0.799700   -1.105162   -0.015704
      2          6           0        1.399118    0.161137    0.029350
      3          6           0        0.602647    1.203338    0.055218
      4          6           0       -0.867335    1.114076   -0.008517
      5          6           0       -1.407836   -0.158258   -0.018743
      6          6           0       -0.597253   -1.276349   -0.005034
      7          1           0        1.695979   -1.920669   -0.136265
      8          1           0       -0.989282   -2.269834   -0.029376
      9          1           0       -2.560561   -0.110720    0.249919
     10          1           0       -1.372909    2.172575   -0.195364
     11          1           0        1.154372    2.260887   -0.188281
     12          1           0        2.498157    0.235066    0.079950
 ---------------------------------------------------------------------

 SCF Done:  E(RB3LYP) =  -232.198036471     A.U. after   13 cycles

 Excitation energies and oscillator strengths:

 Excited State   1:      Singlet-A      5.4600 eV  227.08 nm  f=0.0015  <S**2>=0.000
      20 -> 22         0.45827
      21 -> 23         0.52994
 This state for optimization and/or second-order correction.
 Total Energy, E(TD-HF/TD-DFT) =  -231.997386530
 Copying the excited state density for this state as the 1-particle RhoCI density.

 The electronic state is 1-A.
 Alpha  occ. eigenvalues --  -10.20502 -10.20356 -10.20227 -10.19582 -10.19554
 Alpha  occ. eigenvalues --  -10.18319  -0.85309  -0.75426  -0.72760  -0.59889
 Alpha  occ. eigenvalues --   -0.58486  -0.50984  -0.44887  -0.43129  -0.42020
 Alpha  occ. eigenvalues --   -0.39974  -0.37038  -0.33277  -0.31652  -0.26121
 Alpha  occ. eigenvalues --   -0.23998
 Alpha virt. eigenvalues --   -0.01061   0.00380   0.06472   0.10999   0.11560
 Alpha virt. eigenvalues --    0.15142   0.16274   0.16638   0.18325   0.27301
 Alpha virt. eigenvalues --    0.29126   0.31775   0.34371   0.45739   0.50868

 Mulliken charges:
               1
     1  C   -0.087943
     2  C   -0.055154
     3  C   -0.088248
     4  C   -0.093634
     5  C   -0.093997
     6  C   -0.092156
     7  H    0.075466
     8  H    0.096248
     9  H    0.088451
    10  H    0.095561
    11  H    0.063114
    12  H    0.092291
 Sum of Mulliken charges =  -0.00000

 Dipole moment (field-independent basis, Debye):
    X=              0.1410    Y=             -0.0145    Z=             -0.1053  Tot=              0.1766
 Quadrupole moment (field-independent basis, Debye-Ang):
   XX=            -31.5892   YY=            -32.6371   ZZ=            -38.7519
   XY=             -0.2804   XZ=             -0.4511   YZ=             -0.4282

 Normal termination of Gaussian 16 at Fri Nov 10 19:19:24 2023.
