 Gaussian 16, Revision B.01,
 Gaussian 16:  EM64L-G16RevB.01 20-Dec-2017

 ---------------------------------
 # TD=(NStates=1) B3LYP/6-31G(d,p)
 ---------------------------------

 -------
 ABSSPCT
 -------
 Symbolic Z-matrix:
 Charge =  0 Multiplicity = 1

                         Standard orientation:
 ---------------------------------------------------------------------
 Center     Atomic      Atomic             Coordinates (Angstroms)
 Number     Number       Type             X           Y           Z
 ---------------------------------------------------------------------
      1          6           0       -1.044850    0.985459    0.039000
      2          6           0        0.354139    1.366431   -0.046940
      3          6           0        1.409367    0.322835    0.052838
      4          6           0        1.027186   -0.965605   -0.003771
      5          6           0       -0.358387   -1.335200   -0.028093
      6          6           0       -1.382421   -0.360801   -0.034693
      7          1           0       -1.781946    1.873369    0.118192
      8          1           0       -2.389297   -0.740146   -0.002853
      9          1           0       -0.779030   -2.397529    0.075056
     10          1           0        1.641970   -1.772498    0.088327
     11          1           0        2.559479    0.607654   -0.110477
     12          1           0        0.718625    2.350434   -0.038293
 ---------------------------------------------------------------------

 SCF Done:  E(RB3LYP) =  -232.220193537     A.U. after   13 cycles

 Excitation energies and oscillator strengths:

 Excited State   1:      Singlet-A      5.2837 eV  234.65 nm  f=0.0008  <S**2>=0.000
      20 -> 22        -0.47859
      21 -> 23         0.51387
 This state for optimization and/or second-order correction.
 Total Energy, E(TD-HF/TD-DFT) =  -232.026020932
 Copying the excited state density for this state as the 1-particle RhoCI density.

 The electronic state is 1-A.
 Alpha  occ. eigenvalues --  -10.20464 -10.20310 -10.19890 -10.19736 -10.19133
 Alpha  occ. eigenvalues --  -10.18308  -0.83816  -0.74610  -0.72530  -0.59868
 Alpha  occ. eigenvalues --   -0.59018  -0.51310  -0.45926  -0.43358  -0.41726
 Alpha  occ. eigenvalues --   -0.40134  -0.35694  -0.34745  -0.32394  -0.25561
 Alpha  occ. eigenvalues --   -0.23488
 Alpha virt. eigenvalues --   -0.01381   0.00345   0.08141   0.12327   0.13746
 Alpha virt. eigenvalues --    0.14832   0.17134   0.17462   0.18842   0.26841
 Alpha virt. eigenvalues --    0.28444   0.30996   0.32529   0.46373   0.50068

 Mulliken charges:
               1
     1  C   -0.086105
     2  C   -0.101921
     3  C   -0.098424
     4  C   -0.058385
     5  C   -0.098062
     6  C   -0.078023
     7  H    0.088241
     8  H    0.089018
     9  H    0.084639
    10  H    0.084624
    11  H    0.083678
    12  H    0.090717
 Sum of Mulliken charges =  -0.00000

 Dipole moment (field-independent basis, Debye):
    X=             -0.0589    Y=             -0.0627    Z=              0.0803  Tot=              0.1177
 Quadrupole moment (field-independent basis, Debye-Ang):
   XX=            -31.5659   YY=            -31.5123   ZZ=            -38.8806
   XY=              0.3741   XZ=             -0.3670   YZ=             -0.2514

 Normal termination of Gaussian 16 at Fri Nov 10 17:03:52 2023.
