 Gaussian 16, Revision B.01,
 Gaussian 16:  EM64L-G16RevB.01 20-Dec-2017

 ---------------------------------
 # TD=(NStates=1) B3LYP/6-31G(d,p)
 ---------------------------------

 -------
 ABSSPCT
 -------
 Symbolic Z-matrix:
 Charge =  0 Multiplicity = 1

                         Standard orientation:
 ---------------------------------------------------------------------
 Center     Atomic      Atomic             Coordinates (Angstroms)
 Number     Number       Type             X           Y           Z
 ---------------------------------------------------------------------
      1          6           0        1.319610    0.450339    0.021541
      2          6           0        0.240486    1.345817   -0.029638
      3          6           0       -1.027867    0.906687   -0.042821
      4          6           0       -1.356855   -0.471291   -0.011977
      5          6           0       -0.249635   -1.364920    0.001325
      6          6           0        1.066674   -0.875279   -0.013901
      7          1           0        2.444812    0.802471    0.193487
      8          1           0        1.887215   -1.657128   -0.237408
      9          1           0       -0.453286   -2.443369    0.152492
     10          1           0       -2.381732   -0.802841    0.230782
     11          1           0       -1.934597    1.677493   -0.058125
     12          1           0        0.483109    2.475260    0.171596
 ---------------------------------------------------------------------

 SCF Done:  E(RB3LYP) =  -232.224891508     A.U. after   13 cycles

 Excitation energies and oscillator strengths:

 Excited State   1:      Singlet-A      5.4824 eV  226.15 nm  f=0.0006  <S**2>=0.000
      20 -> 22         0.46902
      20 -> 23         0.15430
      21 -> 22         0.20175
      21 -> 23        -0.46366
 This state for optimization and/or second-order correction.
 Total Energy, E(TD-HF/TD-DFT) =  -232.023416686
 Copying the excited state density for this state as the 1-particle RhoCI density.

 The electronic state is 1-A.
 Alpha  occ. eigenvalues --  -10.19763 -10.19737 -10.19630 -10.19446 -10.19414
 Alpha  occ. eigenvalues --  -10.19227  -0.85294  -0.74305  -0.73700  -0.59781
 Alpha  occ. eigenvalues --   -0.58562  -0.50751  -0.44695  -0.43889  -0.41165
 Alpha  occ. eigenvalues --   -0.40617  -0.36941  -0.34064  -0.32020  -0.25262
 Alpha  occ. eigenvalues --   -0.24654
 Alpha virt. eigenvalues --   -0.00586   0.00256   0.06851   0.11541   0.12986
 Alpha virt. eigenvalues --    0.15427   0.16576   0.17119   0.18056   0.29200
 Alpha virt. eigenvalues --    0.29298   0.31698   0.33618   0.46228   0.52185

 Mulliken charges:
               1
     1  C   -0.088243
     2  C   -0.077176
     3  C   -0.086417
     4  C   -0.087607
     5  C   -0.098257
     6  C   -0.076011
     7  H    0.085785
     8  H    0.084788
     9  H    0.087066
    10  H    0.095118
    11  H    0.077769
    12  H    0.083185
 Sum of Mulliken charges =  -0.00000

 Dipole moment (field-independent basis, Debye):
    X=             -0.0411    Y=             -0.0910    Z=              0.2744  Tot=              0.2920
 Quadrupole moment (field-independent basis, Debye-Ang):
   XX=            -31.7570   YY=            -32.2409   ZZ=            -38.6460
   XY=              0.1686   XZ=             -0.3711   YZ=              0.2351

 Normal termination of Gaussian 16 at Fri Nov 10 17:50:32 2023.
