 Gaussian 16, Revision B.01,
 Gaussian 16:  EM64L-G16RevB.01 20-Dec-2017

 ---------------------------------
 # TD=(NStates=1) B3LYP/6-31G(d,p)
 ---------------------------------

 -------
 ABSSPCT
 -------
 Symbolic Z-matrix:
 Charge =  0 Multiplicity = 1

                         Standard orientation:
 ---------------------------------------------------------------------
 Center     Atomic      Atomic             Coordinates (Angstroms)
 Number     Number       Type             X           Y           Z
 ---------------------------------------------------------------------
      1          6           0       -1.129057    0.910276    0.019088
      2          6           0       -1.323055   -0.490478   -0.025621
      3          6           0       -0.235189   -1.425305   -0.038551
      4          6           0        1.059994   -0.890297   -0.007190
      5          6           0        1.389492    0.472475    0.060642
      6          6           0        0.202407    1.379814   -0.023061
      7          1           0       -1.816716    1.754599    0.068387
      8          1           0        0.543582    2.438303   -0.107420
      9          1           0        2.355374    0.904279   -0.097126
     10          1           0        1.924471   -1.583414    0.073013
     11          1           0       -0.445455   -2.391155    0.034649
     12          1           0       -2.348804   -0.861526    0.116655
 ---------------------------------------------------------------------

 SCF Done:  E(RB3LYP) =  -232.224947183     A.U. after   13 cycles

 Excitation energies and oscillator strengths:

 Excited State   1:      Singlet-A      5.2131 eV  237.83 nm  f=0.0008  <S**2>=0.000
      20 -> 22         0.50830
      21 -> 22        -0.10634
      21 -> 23         0.47480
 This state for optimization and/or second-order correction.
 Total Energy, E(TD-HF/TD-DFT) =  -232.033369936
 Copying the excited state density for this state as the 1-particle RhoCI density.

 The electronic state is 1-A.
 Alpha  occ. eigenvalues --  -10.19988 -10.19857 -10.19567 -10.19444 -10.19376
 Alpha  occ. eigenvalues --  -10.18710  -0.83472  -0.73951  -0.73149  -0.60133
 Alpha  occ. eigenvalues --   -0.59277  -0.51553  -0.46500  -0.43730  -0.42000
 Alpha  occ. eigenvalues --   -0.41011  -0.35239  -0.34822  -0.31941  -0.24897
 Alpha  occ. eigenvalues --   -0.23801
 Alpha virt. eigenvalues --   -0.01401   0.00197   0.09382   0.13762   0.14573
 Alpha virt. eigenvalues --    0.14603   0.16547   0.18438   0.18980   0.26657
 Alpha virt. eigenvalues --    0.28036   0.30820   0.32298   0.45748   0.48047

 Mulliken charges:
               1
     1  C   -0.068990
     2  C   -0.115310
     3  C   -0.049823
     4  C   -0.094642
     5  C   -0.085546
     6  C   -0.106775
     7  H    0.096722
     8  H    0.082196
     9  H    0.095928
    10  H    0.075855
    11  H    0.083799
    12  H    0.086587
 Sum of Mulliken charges =  -0.00000

 Dipole moment (field-independent basis, Debye):
    X=              0.0197    Y=              0.0482    Z=              0.0457  Tot=              0.0693
 Quadrupole moment (field-independent basis, Debye-Ang):
   XX=            -31.6890   YY=            -31.2254   ZZ=            -38.8010
   XY=              0.4973   XZ=             -0.5107   YZ=             -0.4345

 Normal termination of Gaussian 16 at Fri Nov 10 19:15:57 2023.
