 Gaussian 16, Revision B.01,
 Gaussian 16:  EM64L-G16RevB.01 20-Dec-2017

 ---------------------------------
 # TD=(NStates=1) B3LYP/6-31G(d,p)
 ---------------------------------

 -------
 ABSSPCT
 -------
 Symbolic Z-matrix:
 Charge =  0 Multiplicity = 1

                         Standard orientation:
 ---------------------------------------------------------------------
 Center     Atomic      Atomic             Coordinates (Angstroms)
 Number     Number       Type             X           Y           Z
 ---------------------------------------------------------------------
      1          6           0       -1.028410    0.879029    0.026140
      2          6           0       -1.333816   -0.434461   -0.013767
      3          6           0       -0.249731   -1.328093    0.021155
      4          6           0        1.070098   -0.896555   -0.087311
      5          6           0        1.339370    0.470846    0.012738
      6          6           0        0.226078    1.296343   -0.013215
      7          1           0       -1.834837    1.605834   -0.126553
      8          1           0        0.257342    2.398009    0.069582
      9          1           0        2.472794    0.851400    0.138415
     10          1           0        1.982421   -1.548662    0.059414
     11          1           0       -0.557878   -2.355167    0.159396
     12          1           0       -2.461381   -0.874068    0.025302
 ---------------------------------------------------------------------

 SCF Done:  E(RB3LYP) =  -232.218359888     A.U. after   13 cycles

 Excitation energies and oscillator strengths:

 Excited State   1:      Singlet-A      5.6339 eV  220.07 nm  f=0.0026  <S**2>=0.000
      20 -> 22        -0.39551
      20 -> 23        -0.24574
      21 -> 22        -0.32970
      21 -> 23         0.41706
 This state for optimization and/or second-order correction.
 Total Energy, E(TD-HF/TD-DFT) =  -232.011319441
 Copying the excited state density for this state as the 1-particle RhoCI density.

 The electronic state is 1-A.
 Alpha  occ. eigenvalues --  -10.20112 -10.19501 -10.19458 -10.18908 -10.18065
 Alpha  occ. eigenvalues --  -10.17642  -0.86105  -0.74973  -0.73925  -0.59864
 Alpha  occ. eigenvalues --   -0.59230  -0.51557  -0.44890  -0.43640  -0.41523
 Alpha  occ. eigenvalues --   -0.40647  -0.36951  -0.34127  -0.32382  -0.25626
 Alpha  occ. eigenvalues --   -0.24597
 Alpha virt. eigenvalues --   -0.00104   0.00696   0.06857   0.11147   0.13590
 Alpha virt. eigenvalues --    0.16032   0.17228   0.17921   0.19344   0.28965
 Alpha virt. eigenvalues --    0.30680   0.32880   0.34138   0.45897   0.51546

 Mulliken charges:
               1
     1  C   -0.070384
     2  C   -0.085093
     3  C   -0.086531
     4  C   -0.092196
     5  C   -0.090542
     6  C   -0.072147
     7  H    0.081966
     8  H    0.076042
     9  H    0.088602
    10  H    0.086420
    11  H    0.084190
    12  H    0.079673
 Sum of Mulliken charges =  -0.00000

 Dipole moment (field-independent basis, Debye):
    X=             -0.0311    Y=              0.0073    Z=              0.1950  Tot=              0.1976
 Quadrupole moment (field-independent basis, Debye-Ang):
   XX=            -31.3408   YY=            -32.5600   ZZ=            -38.4742
   XY=              0.0221   XZ=              0.4543   YZ=             -0.3433

 Normal termination of Gaussian 16 at Fri Nov 10 18:15:48 2023.
