 Gaussian 16, Revision B.01,
 Gaussian 16:  EM64L-G16RevB.01 20-Dec-2017

 ---------------------------------
 # TD=(NStates=1) B3LYP/6-31G(d,p)
 ---------------------------------

 -------
 ABSSPCT
 -------
 Symbolic Z-matrix:
 Charge =  0 Multiplicity = 1

                         Standard orientation:
 ---------------------------------------------------------------------
 Center     Atomic      Atomic             Coordinates (Angstroms)
 Number     Number       Type             X           Y           Z
 ---------------------------------------------------------------------
      1          6           0       -0.018088   -1.349172   -0.075506
      2          6           0       -1.184438   -0.703220   -0.038281
      3          6           0       -1.237306    0.653877    0.044533
      4          6           0       -0.012706    1.331833   -0.009557
      5          6           0        1.200918    0.679674   -0.060211
      6          6           0        1.260990   -0.640014    0.067933
      7          1           0        0.001461   -2.345044    0.037263
      8          1           0        2.153866   -1.166469    0.242246
      9          1           0        2.163375    1.111805   -0.027297
     10          1           0       -0.056924    2.503019   -0.059018
     11          1           0       -2.106364    1.329294    0.184552
     12          1           0       -2.211636   -1.270477    0.048781
 ---------------------------------------------------------------------

 SCF Done:  E(RB3LYP) =  -232.216794640     A.U. after   13 cycles

 Excitation energies and oscillator strengths:

 Excited State   1:      Singlet-A      5.6550 eV  219.25 nm  f=0.0011  <S**2>=0.000
      20 -> 22         0.49336
      21 -> 22         0.10482
      21 -> 23        -0.49213
 This state for optimization and/or second-order correction.
 Total Energy, E(TD-HF/TD-DFT) =  -232.008977800
 Copying the excited state density for this state as the 1-particle RhoCI density.

 The electronic state is 1-A.
 Alpha  occ. eigenvalues --  -10.19243 -10.18872 -10.18674 -10.18295 -10.17657
 Alpha  occ. eigenvalues --  -10.17570  -0.85848  -0.75772  -0.73552  -0.60678
 Alpha  occ. eigenvalues --   -0.59149  -0.52270  -0.45898  -0.44505  -0.42202
 Alpha  occ. eigenvalues --   -0.40160  -0.36915  -0.35091  -0.31844  -0.26008
 Alpha  occ. eigenvalues --   -0.23903
 Alpha virt. eigenvalues --   -0.00602   0.01579   0.08128   0.13243   0.14280
 Alpha virt. eigenvalues --    0.16352   0.17913   0.18295   0.20376   0.28829
 Alpha virt. eigenvalues --    0.30595   0.32225   0.34946   0.45710   0.52318

 Mulliken charges:
               1
     1  C   -0.086943
     2  C   -0.078487
     3  C   -0.073141
     4  C   -0.098465
     5  C   -0.061267
     6  C   -0.086096
     7  H    0.076073
     8  H    0.087763
     9  H    0.079502
    10  H    0.073448
    11  H    0.090880
    12  H    0.076732
 Sum of Mulliken charges =  -0.00000

 Dipole moment (field-independent basis, Debye):
    X=              0.1514    Y=             -0.0580    Z=              0.2663  Tot=              0.3117
 Quadrupole moment (field-independent basis, Debye-Ang):
   XX=            -31.2939   YY=            -32.2458   ZZ=            -38.2079
   XY=             -0.6176   XZ=              0.0041   YZ=             -0.3176

 Normal termination of Gaussian 16 at Fri Nov 10 17:43:56 2023.
