 Gaussian 16, Revision B.01,
 Gaussian 16:  EM64L-G16RevB.01 20-Dec-2017

 ---------------------------------
 # TD=(NStates=1) B3LYP/6-31G(d,p)
 ---------------------------------

 -------
 ABSSPCT
 -------
 Symbolic Z-matrix:
 Charge =  0 Multiplicity = 1

                         Standard orientation:
 ---------------------------------------------------------------------
 Center     Atomic      Atomic             Coordinates (Angstroms)
 Number     Number       Type             X           Y           Z
 ---------------------------------------------------------------------
      1          6           0       -0.666050    1.224050   -0.061670
      2          6           0       -1.459258    0.014059    0.024923
      3          6           0       -0.712615   -1.190674   -0.021489
      4          6           0        0.693430   -1.220957    0.038474
      5          6           0        1.436944   -0.038248    0.000081
      6          6           0        0.739211    1.192453    0.031147
      7          1           0       -1.436498    2.176108   -0.147508
      8          1           0        1.412203    2.091785    0.114056
      9          1           0        2.512042    0.019083   -0.058452
     10          1           0        1.148260   -2.094212   -0.126551
     11          1           0       -1.240266   -2.078741   -0.083891
     12          1           0       -2.585709    0.001879    0.233553
 ---------------------------------------------------------------------

 SCF Done:  E(RB3LYP) =  -232.218534253     A.U. after   13 cycles

 Excitation energies and oscillator strengths:

 Excited State   1:      Singlet-A      5.2383 eV  236.69 nm  f=0.0010  <S**2>=0.000
      20 -> 22         0.43809
      20 -> 23        -0.24830
      21 -> 22        -0.29422
      21 -> 23        -0.39927
 This state for optimization and/or second-order correction.
 Total Energy, E(TD-HF/TD-DFT) =  -232.026029884
 Copying the excited state density for this state as the 1-particle RhoCI density.

 The electronic state is 1-A.
 Alpha  occ. eigenvalues --  -10.21044 -10.20148 -10.19872 -10.19160 -10.18552
 Alpha  occ. eigenvalues --  -10.18078  -0.83956  -0.73849  -0.73438  -0.59808
 Alpha  occ. eigenvalues --   -0.59318  -0.51292  -0.45966  -0.43888  -0.41726
 Alpha  occ. eigenvalues --   -0.40322  -0.35879  -0.34905  -0.32155  -0.24426
 Alpha  occ. eigenvalues --   -0.24266
 Alpha virt. eigenvalues --   -0.00845  -0.00082   0.07592   0.13023   0.13852
 Alpha virt. eigenvalues --    0.14682   0.16080   0.18378   0.19822   0.27774
 Alpha virt. eigenvalues --    0.29432   0.30690   0.32395   0.46931   0.50801

 Mulliken charges:
               1
     1  C   -0.092650
     2  C   -0.093228
     3  C   -0.084083
     4  C   -0.068363
     5  C   -0.086766
     6  C   -0.088903
     7  H    0.076772
     8  H    0.088046
     9  H    0.091122
    10  H    0.079527
    11  H    0.080493
    12  H    0.098035
 Sum of Mulliken charges =  -0.00000

 Dipole moment (field-independent basis, Debye):
    X=              0.0288    Y=             -0.1758    Z=             -0.0365  Tot=              0.1819
 Quadrupole moment (field-independent basis, Debye-Ang):
   XX=            -30.5601   YY=            -32.5796   ZZ=            -38.7452
   XY=              0.2542   XZ=             -0.3917   YZ=              0.3392

 Normal termination of Gaussian 16 at Fri Nov 10 18:43:55 2023.
