 Gaussian 16, Revision B.01,
 Gaussian 16:  EM64L-G16RevB.01 20-Dec-2017

 ---------------------------------
 # TD=(NStates=1) B3LYP/6-31G(d,p)
 ---------------------------------

 -------
 ABSSPCT
 -------
 Symbolic Z-matrix:
 Charge =  0 Multiplicity = 1

                         Standard orientation:
 ---------------------------------------------------------------------
 Center     Atomic      Atomic             Coordinates (Angstroms)
 Number     Number       Type             X           Y           Z
 ---------------------------------------------------------------------
      1          6           0       -0.248677   -1.311023   -0.052998
      2          6           0       -1.333410   -0.458842    0.068667
      3          6           0       -1.073673    0.920542   -0.024772
      4          6           0        0.257031    1.309204   -0.003581
      5          6           0        1.352222    0.430327   -0.030854
      6          6           0        1.050509   -0.889001   -0.009987
      7          1           0       -0.477351   -2.389626    0.111292
      8          1           0        1.920210   -1.504508    0.052407
      9          1           0        2.416643    0.814678    0.098260
     10          1           0        0.370072    2.394750    0.210036
     11          1           0       -1.829881    1.568385   -0.166362
     12          1           0       -2.423709   -0.890917    0.015516
 ---------------------------------------------------------------------

 SCF Done:  E(RB3LYP) =  -232.227753227     A.U. after   13 cycles

 Excitation energies and oscillator strengths:

 Excited State   1:      Singlet-A      5.5056 eV  225.20 nm  f=0.0022  <S**2>=0.000
      20 -> 22         0.25192
      20 -> 23         0.38388
      21 -> 22         0.47032
      21 -> 23        -0.25956
 This state for optimization and/or second-order correction.
 Total Energy, E(TD-HF/TD-DFT) =  -232.025426711
 Copying the excited state density for this state as the 1-particle RhoCI density.

 The electronic state is 1-A.
 Alpha  occ. eigenvalues --  -10.19566 -10.19038 -10.18783 -10.18543 -10.18122
 Alpha  occ. eigenvalues --  -10.18032  -0.85565  -0.75121  -0.73649  -0.60199
 Alpha  occ. eigenvalues --   -0.59426  -0.51826  -0.46123  -0.43887  -0.42174
 Alpha  occ. eigenvalues --   -0.40255  -0.36701  -0.34673  -0.32432  -0.25206
 Alpha  occ. eigenvalues --   -0.24429
 Alpha virt. eigenvalues --   -0.00074   0.00299   0.08305   0.12688   0.14379
 Alpha virt. eigenvalues --    0.16234   0.17455   0.18762   0.19433   0.29369
 Alpha virt. eigenvalues --    0.30683   0.31815   0.33553   0.46121   0.52383

 Mulliken charges:
               1
     1  C   -0.087271
     2  C   -0.093686
     3  C   -0.066614
     4  C   -0.096956
     5  C   -0.081749
     6  C   -0.069395
     7  H    0.078255
     8  H    0.084422
     9  H    0.089278
    10  H    0.077419
    11  H    0.084016
    12  H    0.082283
 Sum of Mulliken charges =  -0.00000

 Dipole moment (field-independent basis, Debye):
    X=              0.0209    Y=              0.0712    Z=              0.1751  Tot=              0.1902
 Quadrupole moment (field-independent basis, Debye-Ang):
   XX=            -31.0371   YY=            -32.5932   ZZ=            -38.3361
   XY=             -0.2412   XZ=              0.5422   YZ=             -0.0517

 Normal termination of Gaussian 16 at Fri Nov 10 18:09:21 2023.
