 Gaussian 16, Revision B.01,
 Gaussian 16:  EM64L-G16RevB.01 20-Dec-2017

 ---------------------------------
 # TD=(NStates=1) B3LYP/6-31G(d,p)
 ---------------------------------

 -------
 ABSSPCT
 -------
 Symbolic Z-matrix:
 Charge =  0 Multiplicity = 1

                         Standard orientation:
 ---------------------------------------------------------------------
 Center     Atomic      Atomic             Coordinates (Angstroms)
 Number     Number       Type             X           Y           Z
 ---------------------------------------------------------------------
      1          6           0        1.239852    0.627694    0.021468
      2          6           0        1.238420   -0.792564   -0.077347
      3          6           0       -0.153289   -1.357386    0.013624
      4          6           0       -1.353135   -0.581568   -0.071068
      5          6           0       -1.160142    0.755416    0.052504
      6          6           0        0.140727    1.327772    0.043426
      7          1           0        2.321695    0.968415   -0.009674
      8          1           0        0.206011    2.581447   -0.110993
      9          1           0       -1.877963    1.487525   -0.110146
     10          1           0       -2.373716   -1.000918    0.029426
     11          1           0       -0.123837   -2.379563    0.250115
     12          1           0        2.133213   -1.533086    0.055630
 ---------------------------------------------------------------------

 SCF Done:  E(RB3LYP) =  -232.191880462     A.U. after   14 cycles

 Excitation energies and oscillator strengths:

 Excited State   1:      Singlet-A      5.2636 eV  235.55 nm  f=0.0082  <S**2>=0.000
      20 -> 22        -0.44616
      20 -> 23        -0.11675
      21 -> 22        -0.27798
      21 -> 23         0.45678
 This state for optimization and/or second-order correction.
 Total Energy, E(TD-HF/TD-DFT) =  -231.998447929
 Copying the excited state density for this state as the 1-particle RhoCI density.

 The electronic state is 1-A.
 Alpha  occ. eigenvalues --  -10.20799 -10.19757 -10.19675 -10.19673 -10.19020
 Alpha  occ. eigenvalues --  -10.18509  -0.84818  -0.75141  -0.72610  -0.59893
 Alpha  occ. eigenvalues --   -0.59271  -0.51018  -0.45685  -0.43880  -0.42224
 Alpha  occ. eigenvalues --   -0.39508  -0.35639  -0.34963  -0.31442  -0.25843
 Alpha  occ. eigenvalues --   -0.23444
 Alpha virt. eigenvalues --   -0.01616   0.00493   0.06582   0.12078   0.13316
 Alpha virt. eigenvalues --    0.15017   0.16031   0.18146   0.18768   0.26710
 Alpha virt. eigenvalues --    0.28694   0.30501   0.34792   0.45796   0.48815

 Mulliken charges:
               1
     1  C   -0.067202
     2  C   -0.107796
     3  C   -0.107228
     4  C   -0.078744
     5  C   -0.074401
     6  C   -0.078246
     7  H    0.083243
     8  H    0.065808
     9  H    0.086850
    10  H    0.095223
    11  H    0.083705
    12  H    0.098786
 Sum of Mulliken charges =  -0.00000

 Dipole moment (field-independent basis, Debye):
    X=             -0.0098    Y=             -0.1888    Z=              0.1001  Tot=              0.2139
 Quadrupole moment (field-independent basis, Debye-Ang):
   XX=            -31.2554   YY=            -32.4222   ZZ=            -38.7257
   XY=             -0.7552   XZ=              0.1717   YZ=             -1.0000

 Normal termination of Gaussian 16 at Fri Nov 10 16:09:26 2023.
