 Gaussian 16, Revision B.01,
 Gaussian 16:  EM64L-G16RevB.01 20-Dec-2017

 ---------------------------------
 # TD=(NStates=1) B3LYP/6-31G(d,p)
 ---------------------------------

 -------
 ABSSPCT
 -------
 Symbolic Z-matrix:
 Charge =  0 Multiplicity = 1

                         Standard orientation:
 ---------------------------------------------------------------------
 Center     Atomic      Atomic             Coordinates (Angstroms)
 Number     Number       Type             X           Y           Z
 ---------------------------------------------------------------------
      1          6           0        1.365382   -0.068519   -0.009547
      2          6           0        0.777979    1.198526    0.059983
      3          6           0       -0.673380    1.186017   -0.054789
      4          6           0       -1.447881   -0.024620    0.024889
      5          6           0       -0.708909   -1.152606   -0.005924
      6          6           0        0.652736   -1.168115   -0.027760
      7          1           0        2.454514   -0.183255   -0.035382
      8          1           0        1.307037   -2.058848    0.095502
      9          1           0       -1.156015   -2.065835    0.061554
     10          1           0       -2.554619    0.189420   -0.072942
     11          1           0       -1.183305    2.098050    0.125742
     12          1           0        1.336828    2.196371   -0.095580
 ---------------------------------------------------------------------

 SCF Done:  E(RB3LYP) =  -232.216364528     A.U. after   13 cycles

 Excitation energies and oscillator strengths:

 Excited State   1:      Singlet-A      5.5396 eV  223.81 nm  f=0.0003  <S**2>=0.000
      20 -> 22        -0.48582
      21 -> 23         0.50135
 This state for optimization and/or second-order correction.
 Total Energy, E(TD-HF/TD-DFT) =  -232.012786874
 Copying the excited state density for this state as the 1-particle RhoCI density.

 The electronic state is 1-A.
 Alpha  occ. eigenvalues --  -10.19829 -10.19419 -10.18996 -10.17926 -10.17742
 Alpha  occ. eigenvalues --  -10.17609  -0.85711  -0.75140  -0.73613  -0.60746
 Alpha  occ. eigenvalues --   -0.59032  -0.52111  -0.45152  -0.44851  -0.41913
 Alpha  occ. eigenvalues --   -0.40476  -0.36969  -0.33260  -0.33006  -0.25538
 Alpha  occ. eigenvalues --   -0.24339
 Alpha virt. eigenvalues --   -0.00484   0.00542   0.08438   0.13060   0.13739
 Alpha virt. eigenvalues --    0.16718   0.17827   0.18626   0.19808   0.27621
 Alpha virt. eigenvalues --    0.30744   0.31655   0.34386   0.46000   0.49938

 Mulliken charges:
               1
     1  C   -0.078586
     2  C   -0.095094
     3  C   -0.113315
     4  C   -0.077841
     5  C   -0.085568
     6  C   -0.054493
     7  H    0.077088
     8  H    0.082642
     9  H    0.076783
    10  H    0.097254
    11  H    0.081625
    12  H    0.089504
 Sum of Mulliken charges =  -0.00000

 Dipole moment (field-independent basis, Debye):
    X=             -0.0077    Y=             -0.0395    Z=              0.0406  Tot=              0.0572
 Quadrupole moment (field-independent basis, Debye-Ang):
   XX=            -31.3726   YY=            -32.1271   ZZ=            -38.3429
   XY=             -0.4570   XZ=             -0.0795   YZ=             -0.2525

 Normal termination of Gaussian 16 at Fri Nov 10 17:51:29 2023.
