 Gaussian 16, Revision B.01,
 Gaussian 16:  EM64L-G16RevB.01 20-Dec-2017

 ---------------------------------
 # TD=(NStates=1) B3LYP/6-31G(d,p)
 ---------------------------------

 -------
 ABSSPCT
 -------
 Symbolic Z-matrix:
 Charge =  0 Multiplicity = 1

                         Standard orientation:
 ---------------------------------------------------------------------
 Center     Atomic      Atomic             Coordinates (Angstroms)
 Number     Number       Type             X           Y           Z
 ---------------------------------------------------------------------
      1          6           0        0.127598    1.315677    0.032020
      2          6           0        1.346714    0.533076   -0.006109
      3          6           0        1.097536   -0.895936   -0.028161
      4          6           0       -0.204090   -1.353265    0.001533
      5          6           0       -1.208839   -0.524542   -0.010836
      6          6           0       -1.138295    0.911507   -0.000741
      7          1           0        0.391224    2.553832   -0.038197
      8          1           0       -2.075035    1.369660    0.022160
      9          1           0       -2.186127   -1.023568   -0.098157
     10          1           0       -0.537211   -2.413418    0.155803
     11          1           0        1.915549   -1.366842    0.038819
     12          1           0        2.367858    0.961233   -0.006672
 ---------------------------------------------------------------------

 SCF Done:  E(RB3LYP) =  -232.184768353     A.U. after   13 cycles

 Excitation energies and oscillator strengths:

 Excited State   1:      Singlet-A      5.5469 eV  223.52 nm  f=0.0068  <S**2>=0.000
      20 -> 22         0.48479
      20 -> 23         0.14059
      21 -> 22         0.27371
      21 -> 23        -0.41090
 This state for optimization and/or second-order correction.
 Total Energy, E(TD-HF/TD-DFT) =  -231.980922287
 Copying the excited state density for this state as the 1-particle RhoCI density.

 The electronic state is 1-A.
 Alpha  occ. eigenvalues --  -10.20467 -10.20094 -10.18681 -10.18135 -10.18061
 Alpha  occ. eigenvalues --  -10.17939  -0.85561  -0.75181  -0.74022  -0.61571
 Alpha  occ. eigenvalues --   -0.58655  -0.51811  -0.47853  -0.44092  -0.41402
 Alpha  occ. eigenvalues --   -0.40128  -0.36930  -0.35532  -0.30294  -0.25740
 Alpha  occ. eigenvalues --   -0.24194
 Alpha virt. eigenvalues --   -0.01112   0.01467   0.07480   0.12104   0.14791
 Alpha virt. eigenvalues --    0.15812   0.16399   0.19318   0.20106   0.27127
 Alpha virt. eigenvalues --    0.28337   0.32556   0.35636   0.44109   0.49483

 Mulliken charges:
               1
     1  C   -0.102021
     2  C   -0.092686
     3  C   -0.077563
     4  C   -0.046472
     5  C   -0.108819
     6  C   -0.031911
     7  H    0.040075
     8  H    0.096589
     9  H    0.072373
    10  H    0.082648
    11  H    0.067027
    12  H    0.100759
 Sum of Mulliken charges =  -0.00000

 Dipole moment (field-independent basis, Debye):
    X=             -0.0247    Y=             -0.2579    Z=              0.0572  Tot=              0.2653
 Quadrupole moment (field-independent basis, Debye-Ang):
   XX=            -30.3684   YY=            -33.3247   ZZ=            -38.4135
   XY=              0.1319   XZ=              0.0850   YZ=             -0.3094

 Normal termination of Gaussian 16 at Fri Nov 10 18:58:18 2023.
