 Gaussian 16, Revision B.01,
 Gaussian 16:  EM64L-G16RevB.01 20-Dec-2017

 ---------------------------------
 # TD=(NStates=1) B3LYP/6-31G(d,p)
 ---------------------------------

 -------
 ABSSPCT
 -------
 Symbolic Z-matrix:
 Charge =  0 Multiplicity = 1

                         Standard orientation:
 ---------------------------------------------------------------------
 Center     Atomic      Atomic             Coordinates (Angstroms)
 Number     Number       Type             X           Y           Z
 ---------------------------------------------------------------------
      1          6           0        1.343366    0.151937    0.043658
      2          6           0        0.857856   -1.050924   -0.019325
      3          6           0       -0.535105   -1.304793   -0.036577
      4          6           0       -1.376195   -0.232166    0.060811
      5          6           0       -0.852074    1.097448   -0.042775
      6          6           0        0.544977    1.319417    0.002604
      7          1           0        2.497421    0.390576    0.022700
      8          1           0        1.067455    2.388208   -0.059435
      9          1           0       -1.917694    1.719751   -0.004675
     10          1           0       -2.361928   -0.199870    0.015168
     11          1           0       -0.666373   -2.271920    0.011853
     12          1           0        1.484172   -1.912254   -0.035991
 ---------------------------------------------------------------------

 SCF Done:  E(RB3LYP) =  -232.180592016     A.U. after   13 cycles

 Excitation energies and oscillator strengths:

 Excited State   1:      Singlet-A      5.5822 eV  222.11 nm  f=0.0013  <S**2>=0.000
      20 -> 22         0.50530
      20 -> 23         0.10454
      21 -> 22         0.14888
      21 -> 23        -0.45942
 This state for optimization and/or second-order correction.
 Total Energy, E(TD-HF/TD-DFT) =  -231.975451645
 Copying the excited state density for this state as the 1-particle RhoCI density.

 The electronic state is 1-A.
 Alpha  occ. eigenvalues --  -10.20803 -10.20629 -10.19004 -10.17905 -10.17759
 Alpha  occ. eigenvalues --  -10.17604  -0.85472  -0.75052  -0.74063  -0.61695
 Alpha  occ. eigenvalues --   -0.58580  -0.52616  -0.45675  -0.43690  -0.42301
 Alpha  occ. eigenvalues --   -0.40425  -0.36565  -0.33058  -0.32612  -0.25465
 Alpha  occ. eigenvalues --   -0.24628
 Alpha virt. eigenvalues --   -0.00655   0.00867   0.06547   0.10643   0.13848
 Alpha virt. eigenvalues --    0.15871   0.16532   0.20269   0.20779   0.27498
 Alpha virt. eigenvalues --    0.29611   0.31755   0.34663   0.45707   0.52001

 Mulliken charges:
               1
     1  C   -0.062382
     2  C   -0.092933
     3  C   -0.039858
     4  C   -0.076824
     5  C   -0.087296
     6  C   -0.114912
     7  H    0.074958
     8  H    0.090453
     9  H    0.078068
    10  H    0.077273
    11  H    0.070264
    12  H    0.083191
 Sum of Mulliken charges =  -0.00000

 Dipole moment (field-independent basis, Debye):
    X=             -0.0088    Y=             -0.2723    Z=             -0.0295  Tot=              0.2740
 Quadrupole moment (field-independent basis, Debye-Ang):
   XX=            -31.5059   YY=            -32.2271   ZZ=            -38.4996
   XY=             -0.0430   XZ=             -0.1047   YZ=             -0.0916

 Normal termination of Gaussian 16 at Fri Nov 10 17:18:14 2023.
