 Gaussian 16, Revision B.01,
 Gaussian 16:  EM64L-G16RevB.01 20-Dec-2017

 ---------------------------------
 # TD=(NStates=1) B3LYP/6-31G(d,p)
 ---------------------------------

 -------
 ABSSPCT
 -------
 Symbolic Z-matrix:
 Charge =  0 Multiplicity = 1

                         Standard orientation:
 ---------------------------------------------------------------------
 Center     Atomic      Atomic             Coordinates (Angstroms)
 Number     Number       Type             X           Y           Z
 ---------------------------------------------------------------------
      1          6           0       -0.213109   -1.330458    0.007897
      2          6           0       -1.354430   -0.544353   -0.052398
      3          6           0       -1.145227    0.863081    0.030439
      4          6           0        0.191136    1.353742    0.057315
      5          6           0        1.369804    0.535324   -0.007670
      6          6           0        1.158451   -0.860094   -0.030358
      7          1           0       -0.274803   -2.370190    0.144138
      8          1           0        1.833167   -1.690359    0.160216
      9          1           0        2.345528    0.986099   -0.173765
     10          1           0        0.366054    2.372686   -0.082835
     11          1           0       -2.010851    1.642404    0.012828
     12          1           0       -2.298845   -1.044090   -0.091939
 ---------------------------------------------------------------------

 SCF Done:  E(RB3LYP) =  -232.231979856     A.U. after   12 cycles

 Excitation energies and oscillator strengths:

 Excited State   1:      Singlet-A      5.2003 eV  238.42 nm  f=0.0037  <S**2>=0.000
      20 -> 22         0.25898
      20 -> 23        -0.37024
      21 -> 22         0.47120
      21 -> 23         0.27107
 This state for optimization and/or second-order correction.
 Total Energy, E(TD-HF/TD-DFT) =  -232.040871849
 Copying the excited state density for this state as the 1-particle RhoCI density.

 The electronic state is 1-A.
 Alpha  occ. eigenvalues --  -10.20529 -10.19796 -10.19387 -10.19263 -10.18974
 Alpha  occ. eigenvalues --  -10.18460  -0.83642  -0.74061  -0.73101  -0.60152
 Alpha  occ. eigenvalues --   -0.59163  -0.51264  -0.46475  -0.43395  -0.42260
 Alpha  occ. eigenvalues --   -0.40401  -0.35506  -0.33955  -0.33436  -0.24802
 Alpha  occ. eigenvalues --   -0.23878
 Alpha virt. eigenvalues --   -0.00901  -0.00256   0.09245   0.13350   0.14187
 Alpha virt. eigenvalues --    0.14957   0.16457   0.18532   0.20070   0.27714
 Alpha virt. eigenvalues --    0.29412   0.30013   0.31357   0.47583   0.51056

 Mulliken charges:
               1
     1  C   -0.089695
     2  C   -0.072720
     3  C   -0.098423
     4  C   -0.083231
     5  C   -0.097014
     6  C   -0.084305
     7  H    0.078383
     8  H    0.089973
     9  H    0.093837
    10  H    0.083768
    11  H    0.087861
    12  H    0.091567
 Sum of Mulliken charges =  -0.00000

 Dipole moment (field-independent basis, Debye):
    X=             -0.0359    Y=             -0.0732    Z=             -0.0306  Tot=              0.0871
 Quadrupole moment (field-independent basis, Debye-Ang):
   XX=            -31.5864   YY=            -31.3784   ZZ=            -38.7289
   XY=              0.1574   XZ=              0.0010   YZ=             -0.7558

 Normal termination of Gaussian 16 at Fri Nov 10 19:25:32 2023.
