 Gaussian 16, Revision B.01,
 Gaussian 16:  EM64L-G16RevB.01 20-Dec-2017

 ---------------------------------
 # TD=(NStates=1) B3LYP/6-31G(d,p)
 ---------------------------------

 -------
 ABSSPCT
 -------
 Symbolic Z-matrix:
 Charge =  0 Multiplicity = 1

                         Standard orientation:
 ---------------------------------------------------------------------
 Center     Atomic      Atomic             Coordinates (Angstroms)
 Number     Number       Type             X           Y           Z
 ---------------------------------------------------------------------
      1          6           0       -0.888227   -1.108020    0.075880
      2          6           0       -1.390708    0.244172    0.023045
      3          6           0       -0.477799    1.273905   -0.078598
      4          6           0        0.863670    1.110897    0.008267
      5          6           0        1.406806   -0.246194   -0.076527
      6          6           0        0.522193   -1.272925   -0.019690
      7          1           0       -1.804720   -1.738509   -0.049632
      8          1           0        0.848531   -2.385833    0.071078
      9          1           0        2.461054   -0.489041   -0.004601
     10          1           0        1.599779    1.939147    0.464778
     11          1           0       -0.869367    2.282361   -0.020194
     12          1           0       -2.450882    0.380857   -0.055693
 ---------------------------------------------------------------------

 SCF Done:  E(RB3LYP) =  -232.212429782     A.U. after   13 cycles

 Excitation energies and oscillator strengths:

 Excited State   1:      Singlet-A      5.2865 eV  234.53 nm  f=0.0018  <S**2>=0.000
      20 -> 22         0.50588
      21 -> 22         0.13436
      21 -> 23         0.47154
 This state for optimization and/or second-order correction.
 Total Energy, E(TD-HF/TD-DFT) =  -232.018152838
 Copying the excited state density for this state as the 1-particle RhoCI density.

 The electronic state is 1-A.
 Alpha  occ. eigenvalues --  -10.20335 -10.19905 -10.19645 -10.19437 -10.18827
 Alpha  occ. eigenvalues --  -10.18289  -0.84656  -0.74642  -0.73265  -0.59981
 Alpha  occ. eigenvalues --   -0.58938  -0.51027  -0.45714  -0.44297  -0.41286
 Alpha  occ. eigenvalues --   -0.40126  -0.36217  -0.34846  -0.31519  -0.25487
 Alpha  occ. eigenvalues --   -0.23656
 Alpha virt. eigenvalues --   -0.01732   0.00766   0.07550   0.12358   0.13442
 Alpha virt. eigenvalues --    0.14481   0.16646   0.17532   0.19637   0.27816
 Alpha virt. eigenvalues --    0.28553   0.31116   0.34031   0.46092   0.50928

 Mulliken charges:
               1
     1  C   -0.087439
     2  C   -0.091264
     3  C   -0.069947
     4  C   -0.101666
     5  C   -0.086642
     6  C   -0.090562
     7  H    0.095572
     8  H    0.079569
     9  H    0.093902
    10  H    0.090981
    11  H    0.079172
    12  H    0.088325
 Sum of Mulliken charges =  -0.00000

 Dipole moment (field-independent basis, Debye):
    X=             -0.1410    Y=              0.0350    Z=              0.2147  Tot=              0.2593
 Quadrupole moment (field-independent basis, Debye-Ang):
   XX=            -30.9117   YY=            -32.9250   ZZ=            -38.5671
   XY=              0.0677   XZ=              0.9003   YZ=              0.6183

 Normal termination of Gaussian 16 at Fri Nov 10 17:23:33 2023.
