 Gaussian 16, Revision B.01,
 Gaussian 16:  EM64L-G16RevB.01 20-Dec-2017

 ---------------------------------
 # TD=(NStates=1) B3LYP/6-31G(d,p)
 ---------------------------------

 -------
 ABSSPCT
 -------
 Symbolic Z-matrix:
 Charge =  0 Multiplicity = 1

                         Standard orientation:
 ---------------------------------------------------------------------
 Center     Atomic      Atomic             Coordinates (Angstroms)
 Number     Number       Type             X           Y           Z
 ---------------------------------------------------------------------
      1          6           0       -0.470474    1.325693   -0.061087
      2          6           0        0.877912    1.076278    0.057207
      3          6           0        1.398648   -0.233147   -0.072904
      4          6           0        0.493698   -1.256337   -0.011681
      5          6           0       -0.859418   -1.068958    0.095535
      6          6           0       -1.420898    0.202912   -0.067946
      7          1           0       -0.889816    2.397853    0.173796
      8          1           0       -2.484739    0.191752   -0.049907
      9          1           0       -1.660024   -1.937185    0.102140
     10          1           0        0.977237   -2.283239   -0.065717
     11          1           0        2.450207   -0.438358    0.046847
     12          1           0        1.490327    1.790536    0.158101
 ---------------------------------------------------------------------

 SCF Done:  E(RB3LYP) =  -232.209924799     A.U. after   13 cycles

 Excitation energies and oscillator strengths:

 Excited State   1:      Singlet-A      5.4067 eV  229.32 nm  f=0.0016  <S**2>=0.000
      20 -> 22         0.51272
      21 -> 22         0.13615
      21 -> 23        -0.45789
 This state for optimization and/or second-order correction.
 Total Energy, E(TD-HF/TD-DFT) =  -232.011233907
 Copying the excited state density for this state as the 1-particle RhoCI density.

 The electronic state is 1-A.
 Alpha  occ. eigenvalues --  -10.20255 -10.19528 -10.19423 -10.18822 -10.18586
 Alpha  occ. eigenvalues --  -10.17557  -0.84892  -0.74686  -0.73675  -0.60208
 Alpha  occ. eigenvalues --   -0.59544  -0.51780  -0.45718  -0.44247  -0.41661
 Alpha  occ. eigenvalues --   -0.40452  -0.36010  -0.35346  -0.32119  -0.25077
 Alpha  occ. eigenvalues --   -0.24370
 Alpha virt. eigenvalues --   -0.00942   0.00503   0.07967   0.12880   0.13754
 Alpha virt. eigenvalues --    0.15453   0.17324   0.18291   0.20208   0.28452
 Alpha virt. eigenvalues --    0.29235   0.31275   0.33406   0.46530   0.50606

 Mulliken charges:
               1
     1  C   -0.103200
     2  C   -0.050490
     3  C   -0.082800
     4  C   -0.083190
     5  C   -0.076202
     6  C   -0.092235
     7  H    0.081844
     8  H    0.093614
     9  H    0.077369
    10  H    0.077926
    11  H    0.089471
    12  H    0.067892
 Sum of Mulliken charges =  -0.00000

 Dipole moment (field-independent basis, Debye):
    X=              0.0786    Y=             -0.0062    Z=              0.2293  Tot=              0.2425
 Quadrupole moment (field-independent basis, Debye-Ang):
   XX=            -30.8697   YY=            -32.5935   ZZ=            -38.5141
   XY=              0.2176   XZ=              0.1606   YZ=              0.5499

 Normal termination of Gaussian 16 at Fri Nov 10 17:18:25 2023.
