 Gaussian 16, Revision B.01,
 Gaussian 16:  EM64L-G16RevB.01 20-Dec-2017

 ---------------------------------
 # TD=(NStates=1) B3LYP/6-31G(d,p)
 ---------------------------------

 -------
 ABSSPCT
 -------
 Symbolic Z-matrix:
 Charge =  0 Multiplicity = 1

                         Standard orientation:
 ---------------------------------------------------------------------
 Center     Atomic      Atomic             Coordinates (Angstroms)
 Number     Number       Type             X           Y           Z
 ---------------------------------------------------------------------
      1          6           0       -1.030271    0.909818   -0.049522
      2          6           0        0.283094    1.365073   -0.019521
      3          6           0        1.396329    0.442354    0.053403
      4          6           0        1.062916   -0.974090   -0.034269
      5          6           0       -0.305545   -1.297618   -0.008984
      6          6           0       -1.346259   -0.432344    0.053942
      7          1           0       -2.000525    1.532151   -0.045906
      8          1           0       -2.451857   -0.748179    0.100216
      9          1           0       -0.541447   -2.411264   -0.009632
     10          1           0        1.881669   -1.660966   -0.135916
     11          1           0        2.265439    0.805605    0.147815
     12          1           0        0.485129    2.403492   -0.026863
 ---------------------------------------------------------------------

 SCF Done:  E(RB3LYP) =  -232.216815019     A.U. after   13 cycles

 Excitation energies and oscillator strengths:

 Excited State   1:      Singlet-A      5.3829 eV  230.33 nm  f=0.0026  <S**2>=0.000
      20 -> 22         0.38679
      20 -> 23         0.30830
      21 -> 22        -0.37857
      21 -> 23         0.33415
 This state for optimization and/or second-order correction.
 Total Energy, E(TD-HF/TD-DFT) =  -232.018996139
 Copying the excited state density for this state as the 1-particle RhoCI density.

 The electronic state is 1-A.
 Alpha  occ. eigenvalues --  -10.19617 -10.19169 -10.19032 -10.18976 -10.18908
 Alpha  occ. eigenvalues --  -10.18665  -0.84490  -0.74419  -0.73451  -0.60609
 Alpha  occ. eigenvalues --   -0.59569  -0.51550  -0.46555  -0.44240  -0.41695
 Alpha  occ. eigenvalues --   -0.40445  -0.36125  -0.34986  -0.32071  -0.24631
 Alpha  occ. eigenvalues --   -0.24461
 Alpha virt. eigenvalues --   -0.00700   0.00477   0.08030   0.13810   0.14964
 Alpha virt. eigenvalues --    0.15553   0.17090   0.18124   0.19486   0.28723
 Alpha virt. eigenvalues --    0.29402   0.29980   0.33591   0.46316   0.51459

 Mulliken charges:
               1
     1  C   -0.083880
     2  C   -0.093574
     3  C   -0.065219
     4  C   -0.088440
     5  C   -0.089571
     6  C   -0.068311
     7  H    0.078288
     8  H    0.091187
     9  H    0.071987
    10  H    0.093442
    11  H    0.069083
    12  H    0.085007
 Sum of Mulliken charges =  -0.00000

 Dipole moment (field-independent basis, Debye):
    X=              0.1003    Y=              0.0387    Z=              0.0256  Tot=              0.1106
 Quadrupole moment (field-independent basis, Debye-Ang):
   XX=            -30.6015   YY=            -32.4403   ZZ=            -38.5937
   XY=              0.1588   XZ=             -0.0528   YZ=              0.1670

 Normal termination of Gaussian 16 at Fri Nov 10 17:33:58 2023.
