 Gaussian 16, Revision B.01,
 Gaussian 16:  EM64L-G16RevB.01 20-Dec-2017

 ---------------------------------
 # TD=(NStates=1) B3LYP/6-31G(d,p)
 ---------------------------------

 -------
 ABSSPCT
 -------
 Symbolic Z-matrix:
 Charge =  0 Multiplicity = 1

                         Standard orientation:
 ---------------------------------------------------------------------
 Center     Atomic      Atomic             Coordinates (Angstroms)
 Number     Number       Type             X           Y           Z
 ---------------------------------------------------------------------
      1          6           0        0.869817    1.079663    0.005731
      2          6           0        1.380602   -0.218725    0.012359
      3          6           0        0.565030   -1.252309    0.000544
      4          6           0       -0.873364   -1.163069   -0.035695
      5          6           0       -1.413096    0.122190   -0.002712
      6          6           0       -0.537471    1.353912   -0.010416
      7          1           0        1.505798    1.942424    0.098883
      8          1           0       -1.164380    2.235915   -0.039581
      9          1           0       -2.392299    0.453517    0.125067
     10          1           0       -1.446293   -1.958962    0.002651
     11          1           0        1.001718   -2.116826    0.164918
     12          1           0        2.546343   -0.086045   -0.170799
 ---------------------------------------------------------------------

 SCF Done:  E(RB3LYP) =  -232.191379728     A.U. after   13 cycles

 Excitation energies and oscillator strengths:

 Excited State   1:      Singlet-A      5.2797 eV  234.83 nm  f=0.0003  <S**2>=0.000
      20 -> 22         0.49492
      21 -> 22         0.12596
      21 -> 23         0.47941
 This state for optimization and/or second-order correction.
 Total Energy, E(TD-HF/TD-DFT) =  -231.997355840
 Copying the excited state density for this state as the 1-particle RhoCI density.

 The electronic state is 1-A.
 Alpha  occ. eigenvalues --  -10.19688 -10.19014 -10.19010 -10.18944 -10.18632
 Alpha  occ. eigenvalues --  -10.17691  -0.84269  -0.74347  -0.73648  -0.61599
 Alpha  occ. eigenvalues --   -0.59032  -0.52131  -0.47402  -0.44025  -0.42246
 Alpha  occ. eigenvalues --   -0.41072  -0.35825  -0.33681  -0.32295  -0.24708
 Alpha  occ. eigenvalues --   -0.23936
 Alpha virt. eigenvalues --   -0.00802   0.00144   0.08746   0.12629   0.15337
 Alpha virt. eigenvalues --    0.16308   0.17726   0.19135   0.19832   0.25614
 Alpha virt. eigenvalues --    0.29677   0.31778   0.32528   0.45620   0.49838

 Mulliken charges:
               1
     1  C   -0.101865
     2  C   -0.058753
     3  C   -0.099062
     4  C   -0.055133
     5  C   -0.099464
     6  C   -0.089464
     7  H    0.082053
     8  H    0.093324
     9  H    0.082209
    10  H    0.077916
    11  H    0.079706
    12  H    0.088533
 Sum of Mulliken charges =  -0.00000

 Dipole moment (field-independent basis, Debye):
    X=             -0.1309    Y=              0.0575    Z=              0.1160  Tot=              0.1841
 Quadrupole moment (field-independent basis, Debye-Ang):
   XX=            -31.3041   YY=            -31.6435   ZZ=            -38.4471
   XY=             -0.1812   XZ=             -0.3158   YZ=             -0.1798

 Normal termination of Gaussian 16 at Fri Nov 10 16:07:07 2023.
