 Gaussian 16, Revision B.01,
 Gaussian 16:  EM64L-G16RevB.01 20-Dec-2017

 ---------------------------------
 # TD=(NStates=1) B3LYP/6-31G(d,p)
 ---------------------------------

 -------
 ABSSPCT
 -------
 Symbolic Z-matrix:
 Charge =  0 Multiplicity = 1

                         Standard orientation:
 ---------------------------------------------------------------------
 Center     Atomic      Atomic             Coordinates (Angstroms)
 Number     Number       Type             X           Y           Z
 ---------------------------------------------------------------------
      1          6           0       -1.367123   -0.281035   -0.054893
      2          6           0       -0.896692    1.023911    0.061135
      3          6           0        0.448986    1.319738   -0.007977
      4          6           0        1.327200    0.199381   -0.051378
      5          6           0        0.909087   -1.027082    0.006892
      6          6           0       -0.450029   -1.265563    0.037605
      7          1           0       -2.499457   -0.474150   -0.042878
      8          1           0       -0.720327   -2.302823    0.036443
      9          1           0        1.642426   -1.730801   -0.034803
     10          1           0        2.438177    0.450478    0.128441
     11          1           0        0.830867    2.379177   -0.007522
     12          1           0       -1.520259    1.862021   -0.027984
 ---------------------------------------------------------------------

 SCF Done:  E(RB3LYP) =  -232.224284053     A.U. after   12 cycles

 Excitation energies and oscillator strengths:

 Excited State   1:      Singlet-A      5.7308 eV  216.35 nm  f=0.0001  <S**2>=0.000
      20 -> 22        -0.49264
      21 -> 23         0.50665
 This state for optimization and/or second-order correction.
 Total Energy, E(TD-HF/TD-DFT) =  -232.013682248
 Copying the excited state density for this state as the 1-particle RhoCI density.

 The electronic state is 1-A.
 Alpha  occ. eigenvalues --  -10.19051 -10.18894 -10.18146 -10.18060 -10.18030
 Alpha  occ. eigenvalues --  -10.16826  -0.86258  -0.75506  -0.74045  -0.60427
 Alpha  occ. eigenvalues --   -0.59533  -0.52292  -0.45251  -0.44586  -0.42235
 Alpha  occ. eigenvalues --   -0.41075  -0.37173  -0.34045  -0.32606  -0.25637
 Alpha  occ. eigenvalues --   -0.24595
 Alpha virt. eigenvalues --    0.00156   0.01032   0.08527   0.13001   0.14620
 Alpha virt. eigenvalues --    0.17118   0.17815   0.19007   0.19953   0.29778
 Alpha virt. eigenvalues --    0.30540   0.33010   0.34477   0.45460   0.51441

 Mulliken charges:
               1
     1  C   -0.077317
     2  C   -0.089865
     3  C   -0.087684
     4  C   -0.091421
     5  C   -0.042350
     6  C   -0.093396
     7  H    0.086284
     8  H    0.077859
     9  H    0.081251
    10  H    0.069445
    11  H    0.088208
    12  H    0.078986
 Sum of Mulliken charges =  -0.00000

 Dipole moment (field-independent basis, Debye):
    X=              0.0178    Y=             -0.0142    Z=              0.0241  Tot=              0.0331
 Quadrupole moment (field-independent basis, Debye-Ang):
   XX=            -31.9601   YY=            -31.6272   ZZ=            -38.1590
   XY=             -0.1690   XZ=              0.2834   YZ=             -0.0185

 Normal termination of Gaussian 16 at Fri Nov 10 18:39:45 2023.
