 Gaussian 16, Revision B.01,
 Gaussian 16:  EM64L-G16RevB.01 20-Dec-2017

 ---------------------------------
 # TD=(NStates=1) B3LYP/6-31G(d,p)
 ---------------------------------

 -------
 ABSSPCT
 -------
 Symbolic Z-matrix:
 Charge =  0 Multiplicity = 1

                         Standard orientation:
 ---------------------------------------------------------------------
 Center     Atomic      Atomic             Coordinates (Angstroms)
 Number     Number       Type             X           Y           Z
 ---------------------------------------------------------------------
      1          6           0       -1.414657    0.104069    0.035892
      2          6           0       -0.838497   -1.085223   -0.003195
      3          6           0        0.517558   -1.168666    0.000365
      4          6           0        1.441119   -0.195219   -0.011783
      5          6           0        0.863044    1.118007   -0.043923
      6          6           0       -0.568284    1.252352   -0.023969
      7          1           0       -2.469579    0.298832   -0.001250
      8          1           0       -1.082092    2.202229    0.179327
      9          1           0        1.343319    2.027031    0.034184
     10          1           0        2.640115   -0.388653    0.081756
     11          1           0        1.025008   -2.260200    0.178514
     12          1           0       -1.458472   -2.031163   -0.192847
 ---------------------------------------------------------------------

 SCF Done:  E(RB3LYP) =  -232.208512247     A.U. after   13 cycles

 Excitation energies and oscillator strengths:

 Excited State   1:      Singlet-A      5.5124 eV  224.92 nm  f=0.0036  <S**2>=0.000
      20 -> 22         0.37244
      20 -> 23         0.25687
      21 -> 22        -0.33878
      21 -> 23         0.42422
 This state for optimization and/or second-order correction.
 Total Energy, E(TD-HF/TD-DFT) =  -232.005935037
 Copying the excited state density for this state as the 1-particle RhoCI density.

 The electronic state is 1-A.
 Alpha  occ. eigenvalues --  -10.20437 -10.19319 -10.19180 -10.19100 -10.18595
 Alpha  occ. eigenvalues --  -10.18324  -0.85662  -0.75079  -0.73415  -0.60438
 Alpha  occ. eigenvalues --   -0.58784  -0.51412  -0.45067  -0.44364  -0.42498
 Alpha  occ. eigenvalues --   -0.39612  -0.36851  -0.33909  -0.32033  -0.25619
 Alpha  occ. eigenvalues --   -0.24273
 Alpha virt. eigenvalues --   -0.00283   0.00284   0.06596   0.12096   0.13445
 Alpha virt. eigenvalues --    0.16307   0.16846   0.17727   0.19259   0.28299
 Alpha virt. eigenvalues --    0.29365   0.32106   0.33941   0.46060   0.51945

 Mulliken charges:
               1
     1  C   -0.082864
     2  C   -0.061120
     3  C   -0.080423
     4  C   -0.073367
     5  C   -0.099943
     6  C   -0.099313
     7  H    0.087117
     8  H    0.084745
     9  H    0.085880
    10  H    0.093958
    11  H    0.059070
    12  H    0.086261
 Sum of Mulliken charges =  -0.00000

 Dipole moment (field-independent basis, Debye):
    X=             -0.0816    Y=              0.1683    Z=              0.1564  Tot=              0.2438
 Quadrupole moment (field-independent basis, Debye-Ang):
   XX=            -31.1899   YY=            -32.5970   ZZ=            -38.5295
   XY=             -0.0870   XZ=              0.4033   YZ=              0.4275

 Normal termination of Gaussian 16 at Fri Nov 10 17:06:14 2023.
