 Gaussian 16, Revision B.01,
 Gaussian 16:  EM64L-G16RevB.01 20-Dec-2017

 ---------------------------------
 # TD=(NStates=1) B3LYP/6-31G(d,p)
 ---------------------------------

 -------
 ABSSPCT
 -------
 Symbolic Z-matrix:
 Charge =  0 Multiplicity = 1

                         Standard orientation:
 ---------------------------------------------------------------------
 Center     Atomic      Atomic             Coordinates (Angstroms)
 Number     Number       Type             X           Y           Z
 ---------------------------------------------------------------------
      1          6           0        1.406404   -0.291027   -0.069502
      2          6           0        0.923795    1.007195    0.068250
      3          6           0       -0.399202    1.265054   -0.025576
      4          6           0       -1.366208    0.299243    0.027696
      5          6           0       -0.965277   -1.037698   -0.070833
      6          6           0        0.411591   -1.263750    0.010423
      7          1           0        2.383025   -0.641234    0.109604
      8          1           0        0.931090   -2.293539    0.175721
      9          1           0       -1.758214   -1.872470    0.154211
     10          1           0       -2.498727    0.648077   -0.078500
     11          1           0       -0.673141    2.331266    0.182664
     12          1           0        1.549343    1.953797   -0.186453
 ---------------------------------------------------------------------

 SCF Done:  E(RB3LYP) =  -232.209729314     A.U. after   13 cycles

 Excitation energies and oscillator strengths:

 Excited State   1:      Singlet-A      5.4779 eV  226.33 nm  f=0.0050  <S**2>=0.000
      20 -> 23         0.44243
      21 -> 22         0.55093
 This state for optimization and/or second-order correction.
 Total Energy, E(TD-HF/TD-DFT) =  -232.008419061
 Copying the excited state density for this state as the 1-particle RhoCI density.

 The electronic state is 1-A.
 Alpha  occ. eigenvalues --  -10.20252 -10.19968 -10.19714 -10.19129 -10.18693
 Alpha  occ. eigenvalues --  -10.18242  -0.85877  -0.74709  -0.74148  -0.60339
 Alpha  occ. eigenvalues --   -0.58527  -0.51400  -0.44441  -0.44108  -0.41513
 Alpha  occ. eigenvalues --   -0.40127  -0.36930  -0.34064  -0.31832  -0.25341
 Alpha  occ. eigenvalues --   -0.25164
 Alpha virt. eigenvalues --   -0.01094   0.00264   0.06643   0.12155   0.12824
 Alpha virt. eigenvalues --    0.14703   0.16059   0.18163   0.19087   0.28724
 Alpha virt. eigenvalues --    0.29791   0.32221   0.33547   0.45173   0.46185

 Mulliken charges:
               1
     1  C   -0.075533
     2  C   -0.088754
     3  C   -0.071029
     4  C   -0.083161
     5  C   -0.091643
     6  C   -0.089108
     7  H    0.093354
     8  H    0.074660
     9  H    0.090319
    10  H    0.082803
    11  H    0.081918
    12  H    0.076175
 Sum of Mulliken charges =  -0.00000

 Dipole moment (field-independent basis, Debye):
    X=              0.0011    Y=             -0.0239    Z=              0.2211  Tot=              0.2224
 Quadrupole moment (field-independent basis, Debye-Ang):
   XX=            -31.8656   YY=            -32.5909   ZZ=            -38.5062
   XY=             -0.5216   XZ=             -0.0284   YZ=             -0.6022

 Normal termination of Gaussian 16 at Fri Nov 10 16:11:16 2023.
