 Gaussian 16, Revision B.01,
 Gaussian 16:  EM64L-G16RevB.01 20-Dec-2017

 ---------------------------------
 # TD=(NStates=1) B3LYP/6-31G(d,p)
 ---------------------------------

 -------
 ABSSPCT
 -------
 Symbolic Z-matrix:
 Charge =  0 Multiplicity = 1

                         Standard orientation:
 ---------------------------------------------------------------------
 Center     Atomic      Atomic             Coordinates (Angstroms)
 Number     Number       Type             X           Y           Z
 ---------------------------------------------------------------------
      1          6           0        0.907951   -1.049777    0.036652
      2          6           0        1.394165    0.222895   -0.026478
      3          6           0        0.474423    1.240963   -0.009784
      4          6           0       -0.915186    1.111771    0.015573
      5          6           0       -1.337645   -0.240387   -0.036097
      6          6           0       -0.503714   -1.271910    0.020494
      7          1           0        1.477691   -1.951229   -0.023922
      8          1           0       -1.056080   -2.133945    0.049278
      9          1           0       -2.475270   -0.574240   -0.186236
     10          1           0       -1.599050    2.010682    0.241392
     11          1           0        1.028146    2.271284   -0.085951
     12          1           0        2.504599    0.296119    0.003269
 ---------------------------------------------------------------------

 SCF Done:  E(RB3LYP) =  -232.214213036     A.U. after   13 cycles

 Excitation energies and oscillator strengths:

 Excited State   1:      Singlet-A      5.5816 eV  222.13 nm  f=0.0028  <S**2>=0.000
      20 -> 22         0.51771
      21 -> 22        -0.16031
      21 -> 23         0.44354
 This state for optimization and/or second-order correction.
 Total Energy, E(TD-HF/TD-DFT) =  -232.009092826
 Copying the excited state density for this state as the 1-particle RhoCI density.

 The electronic state is 1-A.
 Alpha  occ. eigenvalues --  -10.20104 -10.19594 -10.19186 -10.18793 -10.18692
 Alpha  occ. eigenvalues --  -10.17392  -0.85627  -0.75236  -0.73749  -0.61011
 Alpha  occ. eigenvalues --   -0.58191  -0.51824  -0.45743  -0.43430  -0.41684
 Alpha  occ. eigenvalues --   -0.40883  -0.36635  -0.33828  -0.32487  -0.25531
 Alpha  occ. eigenvalues --   -0.24352
 Alpha virt. eigenvalues --   -0.00799   0.01361   0.07248   0.12361   0.13877
 Alpha virt. eigenvalues --    0.15724   0.16758   0.17790   0.19680   0.29171
 Alpha virt. eigenvalues --    0.29566   0.32619   0.33285   0.45103   0.50240

 Mulliken charges:
               1
     1  C   -0.097792
     2  C   -0.063046
     3  C   -0.104129
     4  C   -0.088020
     5  C   -0.101401
     6  C   -0.042801
     7  H    0.084109
     8  H    0.079512
     9  H    0.068215
    10  H    0.099528
    11  H    0.072200
    12  H    0.093626
 Sum of Mulliken charges =  -0.00000

 Dipole moment (field-independent basis, Debye):
    X=              0.0684    Y=             -0.1715    Z=              0.0394  Tot=              0.1888
 Quadrupole moment (field-independent basis, Debye-Ang):
   XX=            -31.6098   YY=            -32.1677   ZZ=            -38.4645
   XY=              0.0553   XZ=             -0.1608   YZ=              0.3184

 Normal termination of Gaussian 16 at Fri Nov 10 17:40:34 2023.
