 Gaussian 16, Revision B.01,
 Gaussian 16:  EM64L-G16RevB.01 20-Dec-2017

 ---------------------------------
 # TD=(NStates=1) B3LYP/6-31G(d,p)
 ---------------------------------

 -------
 ABSSPCT
 -------
 Symbolic Z-matrix:
 Charge =  0 Multiplicity = 1

                         Standard orientation:
 ---------------------------------------------------------------------
 Center     Atomic      Atomic             Coordinates (Angstroms)
 Number     Number       Type             X           Y           Z
 ---------------------------------------------------------------------
      1          6           0        0.397671   -1.259782    0.099195
      2          6           0       -0.921571   -1.009427   -0.135021
      3          6           0       -1.351174    0.305372   -0.028940
      4          6           0       -0.437610    1.279164    0.007913
      5          6           0        0.917462    0.965231   -0.044074
      6          6           0        1.361295   -0.289611    0.029136
      7          1           0        0.744702   -2.175253   -0.093693
      8          1           0        2.333824   -0.543245    0.140437
      9          1           0        1.871012    1.638710   -0.237678
     10          1           0       -0.645618    2.427912    0.229725
     11          1           0       -2.419673    0.642148    0.268882
     12          1           0       -1.680686   -1.935954    0.123066
 ---------------------------------------------------------------------

 SCF Done:  E(RB3LYP) =  -232.183191247     A.U. after   13 cycles

 Excitation energies and oscillator strengths:

 Excited State   1:      Singlet-A      5.6044 eV  221.23 nm  f=0.0007  <S**2>=0.000
      20 -> 22         0.46449
      20 -> 23         0.10901
      21 -> 22        -0.16932
      21 -> 23         0.49292
 This state for optimization and/or second-order correction.
 Total Energy, E(TD-HF/TD-DFT) =  -231.977234705
 Copying the excited state density for this state as the 1-particle RhoCI density.

 The electronic state is 1-A.
 Alpha  occ. eigenvalues --  -10.19602 -10.19440 -10.19310 -10.18882 -10.17000
 Alpha  occ. eigenvalues --  -10.16898  -0.86878  -0.75867  -0.74215  -0.60207
 Alpha  occ. eigenvalues --   -0.59855  -0.51791  -0.45903  -0.44067  -0.42433
 Alpha  occ. eigenvalues --   -0.39505  -0.37095  -0.33602  -0.32340  -0.25882
 Alpha  occ. eigenvalues --   -0.24656
 Alpha virt. eigenvalues --   -0.00486   0.00530   0.06626   0.11811   0.13375
 Alpha virt. eigenvalues --    0.15060   0.17065   0.17963   0.21096   0.29725
 Alpha virt. eigenvalues --    0.31023   0.33463   0.34191   0.44899   0.49708

 Mulliken charges:
               1
     1  C   -0.072101
     2  C   -0.109223
     3  C   -0.081540
     4  C   -0.084975
     5  C   -0.075398
     6  C   -0.058680
     7  H    0.079305
     8  H    0.083902
     9  H    0.071185
    10  H    0.084531
    11  H    0.089046
    12  H    0.073949
 Sum of Mulliken charges =   0.00000

 Dipole moment (field-independent basis, Debye):
    X=              0.3025    Y=             -0.0131    Z=              0.2660  Tot=              0.4031
 Quadrupole moment (field-independent basis, Debye-Ang):
   XX=            -31.7210   YY=            -32.9226   ZZ=            -38.0553
   XY=             -0.5176   XZ=             -0.9153   YZ=              0.2170

 Normal termination of Gaussian 16 at Fri Nov 10 17:04:40 2023.
