 Gaussian 16, Revision B.01,
 Gaussian 16:  EM64L-G16RevB.01 20-Dec-2017

 ---------------------------------
 # TD=(NStates=1) B3LYP/6-31G(d,p)
 ---------------------------------

 -------
 ABSSPCT
 -------
 Symbolic Z-matrix:
 Charge =  0 Multiplicity = 1

                         Standard orientation:
 ---------------------------------------------------------------------
 Center     Atomic      Atomic             Coordinates (Angstroms)
 Number     Number       Type             X           Y           Z
 ---------------------------------------------------------------------
      1          6           0       -1.258242    0.630301    0.072629
      2          6           0       -1.181013   -0.762263    0.007102
      3          6           0        0.052426   -1.404534   -0.040891
      4          6           0        1.275066   -0.631170    0.019144
      5          6           0        1.197396    0.737743   -0.026082
      6          6           0       -0.058741    1.404850   -0.045155
      7          1           0       -2.201014    1.231385    0.041373
      8          1           0       -0.208526    2.445089   -0.061970
      9          1           0        2.077081    1.278224    0.037711
     10          1           0        2.202111   -1.053566    0.206536
     11          1           0        0.005986   -2.414362   -0.054865
     12          1           0       -2.036989   -1.336336   -0.089267
 ---------------------------------------------------------------------

 SCF Done:  E(RB3LYP) =  -232.235508548     A.U. after   12 cycles

 Excitation energies and oscillator strengths:

 Excited State   1:      Singlet-A      5.3562 eV  231.48 nm  f=0.0001  <S**2>=0.000
      20 -> 22         0.50256
      21 -> 23         0.49218
 This state for optimization and/or second-order correction.
 Total Energy, E(TD-HF/TD-DFT) =  -232.038670719
 Copying the excited state density for this state as the 1-particle RhoCI density.

 The electronic state is 1-A.
 Alpha  occ. eigenvalues --  -10.19191 -10.18826 -10.18564 -10.18380 -10.18283
 Alpha  occ. eigenvalues --  -10.18187  -0.84089  -0.74652  -0.73411  -0.60608
 Alpha  occ. eigenvalues --   -0.59666  -0.52276  -0.47147  -0.43381  -0.42449
 Alpha  occ. eigenvalues --   -0.41439  -0.35566  -0.34764  -0.33440  -0.24950
 Alpha  occ. eigenvalues --   -0.23817
 Alpha virt. eigenvalues --   -0.00751   0.00550   0.10281   0.14769   0.15149
 Alpha virt. eigenvalues --    0.15758   0.18395   0.19227   0.20115   0.28918
 Alpha virt. eigenvalues --    0.29817   0.30681   0.32148   0.47058   0.51710

 Mulliken charges:
               1
     1  C   -0.093057
     2  C   -0.075773
     3  C   -0.081824
     4  C   -0.081830
     5  C   -0.077785
     6  C   -0.085227
     7  H    0.083562
     8  H    0.084220
     9  H    0.081419
    10  H    0.085182
    11  H    0.078486
    12  H    0.082629
 Sum of Mulliken charges =  -0.00000

 Dipole moment (field-independent basis, Debye):
    X=              0.0069    Y=             -0.0020    Z=              0.0499  Tot=              0.0504
 Quadrupole moment (field-independent basis, Debye-Ang):
   XX=            -31.3576   YY=            -31.3218   ZZ=            -38.3893
   XY=             -0.0124   XZ=              0.5597   YZ=             -0.0316

 Normal termination of Gaussian 16 at Fri Nov 10 17:14:49 2023.
