 Gaussian 16, Revision B.01,
 Gaussian 16:  EM64L-G16RevB.01 20-Dec-2017

 ---------------------------------
 # TD=(NStates=1) B3LYP/6-31G(d,p)
 ---------------------------------

 -------
 ABSSPCT
 -------
 Symbolic Z-matrix:
 Charge =  0 Multiplicity = 1

                         Standard orientation:
 ---------------------------------------------------------------------
 Center     Atomic      Atomic             Coordinates (Angstroms)
 Number     Number       Type             X           Y           Z
 ---------------------------------------------------------------------
      1          6           0       -1.113695   -0.868893    0.073677
      2          6           0       -1.304996    0.500532    0.040352
      3          6           0       -0.247982    1.323200   -0.028069
      4          6           0        1.151436    0.852866   -0.009140
      5          6           0        1.319277   -0.501583    0.006675
      6          6           0        0.187883   -1.299009   -0.074711
      7          1           0       -1.915186   -1.597553   -0.045213
      8          1           0        0.302136   -2.420904   -0.165793
      9          1           0        2.358780   -1.087559    0.255155
     10          1           0        1.956875    1.600215    0.051343
     11          1           0       -0.346306    2.407552   -0.112060
     12          1           0       -2.307832    1.055567   -0.036139
 ---------------------------------------------------------------------

 SCF Done:  E(RB3LYP) =  -232.225298340     A.U. after   13 cycles

 Excitation energies and oscillator strengths:

 Excited State   1:      Singlet-A      5.5018 eV  225.35 nm  f=0.0044  <S**2>=0.000
      20 -> 22         0.42374
      20 -> 23         0.20941
      21 -> 22        -0.32495
      21 -> 23         0.41270
 This state for optimization and/or second-order correction.
 Total Energy, E(TD-HF/TD-DFT) =  -232.023109156
 Copying the excited state density for this state as the 1-particle RhoCI density.

 The electronic state is 1-A.
 Alpha  occ. eigenvalues --  -10.19899 -10.19594 -10.18993 -10.18863 -10.18800
 Alpha  occ. eigenvalues --  -10.18737  -0.85405  -0.74835  -0.73553  -0.60261
 Alpha  occ. eigenvalues --   -0.58509  -0.51227  -0.45083  -0.44379  -0.41620
 Alpha  occ. eigenvalues --   -0.40094  -0.36467  -0.34662  -0.32298  -0.25520
 Alpha  occ. eigenvalues --   -0.24180
 Alpha virt. eigenvalues --   -0.00606   0.00782   0.07409   0.11670   0.14066
 Alpha virt. eigenvalues --    0.15463   0.16923   0.18431   0.18545   0.27743
 Alpha virt. eigenvalues --    0.30910   0.32062   0.33509   0.46253   0.52177

 Mulliken charges:
               1
     1  C   -0.084401
     2  C   -0.076917
     3  C   -0.085103
     4  C   -0.098472
     5  C   -0.072822
     6  C   -0.088366
     7  H    0.091576
     8  H    0.075919
     9  H    0.081449
    10  H    0.092322
    11  H    0.081081
    12  H    0.083736
 Sum of Mulliken charges =  -0.00000

 Dipole moment (field-independent basis, Debye):
    X=             -0.0379    Y=              0.0624    Z=             -0.0268  Tot=              0.0778
 Quadrupole moment (field-independent basis, Debye-Ang):
   XX=            -32.0734   YY=            -31.6462   ZZ=            -38.5602
   XY=              0.2949   XZ=              0.6740   YZ=             -0.0414

 Normal termination of Gaussian 16 at Fri Nov 10 19:25:46 2023.
