 Gaussian 16, Revision B.01,
 Gaussian 16:  EM64L-G16RevB.01 20-Dec-2017

 ---------------------------------
 # TD=(NStates=1) B3LYP/6-31G(d,p)
 ---------------------------------

 -------
 ABSSPCT
 -------
 Symbolic Z-matrix:
 Charge =  0 Multiplicity = 1

                         Standard orientation:
 ---------------------------------------------------------------------
 Center     Atomic      Atomic             Coordinates (Angstroms)
 Number     Number       Type             X           Y           Z
 ---------------------------------------------------------------------
      1          6           0       -1.300713    0.581183    0.031007
      2          6           0       -0.217998    1.369799    0.009265
      3          6           0        1.131239    0.824434   -0.018911
      4          6           0        1.332114   -0.574712    0.059688
      5          6           0        0.115699   -1.397313   -0.033049
      6          6           0       -1.123882   -0.830955   -0.032877
      7          1           0       -2.176987    0.919315    0.208582
      8          1           0       -2.015911   -1.446893   -0.134858
      9          1           0        0.245962   -2.287173    0.035646
     10          1           0        2.368260   -1.042464    0.080826
     11          1           0        2.044252    1.478391   -0.157390
     12          1           0       -0.084335    2.544214   -0.123538
 ---------------------------------------------------------------------

 SCF Done:  E(RB3LYP) =  -232.182567122     A.U. after   13 cycles

 Excitation energies and oscillator strengths:

 Excited State   1:      Singlet-A      5.3565 eV  231.47 nm  f=0.0011  <S**2>=0.000
      20 -> 22         0.40030
      20 -> 23         0.28885
      21 -> 22         0.34601
      21 -> 23        -0.36902
 This state for optimization and/or second-order correction.
 Total Energy, E(TD-HF/TD-DFT) =  -231.985719903
 Copying the excited state density for this state as the 1-particle RhoCI density.

 The electronic state is 1-A.
 Alpha  occ. eigenvalues --  -10.20000 -10.19826 -10.19631 -10.18832 -10.17631
 Alpha  occ. eigenvalues --  -10.17292  -0.84302  -0.74698  -0.73527  -0.60493
 Alpha  occ. eigenvalues --   -0.59857  -0.52574  -0.46294  -0.43847  -0.42499
 Alpha  occ. eigenvalues --   -0.41060  -0.36129  -0.33630  -0.32878  -0.24691
 Alpha  occ. eigenvalues --   -0.24295
 Alpha virt. eigenvalues --   -0.00579   0.00194   0.08705   0.13365   0.14082
 Alpha virt. eigenvalues --    0.15499   0.17156   0.19228   0.20196   0.28081
 Alpha virt. eigenvalues --    0.28725   0.31068   0.33508   0.46856   0.51555

 Mulliken charges:
               1
     1  C   -0.062044
     2  C   -0.078320
     3  C   -0.099010
     4  C   -0.099643
     5  C   -0.035691
     6  C   -0.094534
     7  H    0.076287
     8  H    0.084766
     9  H    0.052048
    10  H    0.089344
    11  H    0.084951
    12  H    0.081844
 Sum of Mulliken charges =  -0.00000

 Dipole moment (field-independent basis, Debye):
    X=              0.0042    Y=             -0.1462    Z=             -0.0352  Tot=              0.1504
 Quadrupole moment (field-independent basis, Debye-Ang):
   XX=            -31.1019   YY=            -31.8472   ZZ=            -38.4371
   XY=              0.1759   XZ=             -0.2956   YZ=             -0.2453

 Normal termination of Gaussian 16 at Fri Nov 10 18:38:54 2023.
