 Gaussian 16, Revision B.01,
 Gaussian 16:  EM64L-G16RevB.01 20-Dec-2017

 ---------------------------------
 # TD=(NStates=1) B3LYP/6-31G(d,p)
 ---------------------------------

 -------
 ABSSPCT
 -------
 Symbolic Z-matrix:
 Charge =  0 Multiplicity = 1

                         Standard orientation:
 ---------------------------------------------------------------------
 Center     Atomic      Atomic             Coordinates (Angstroms)
 Number     Number       Type             X           Y           Z
 ---------------------------------------------------------------------
      1          6           0       -0.850532    1.108389   -0.121774
      2          6           0        0.556572    1.268679   -0.003806
      3          6           0        1.424465    0.167129    0.008148
      4          6           0        0.865724   -1.149079    0.019442
      5          6           0       -0.560168   -1.239949   -0.022792
      6          6           0       -1.409576   -0.155738    0.010000
      7          1           0       -1.309529    1.835224    0.173020
      8          1           0       -2.521235   -0.344858    0.130117
      9          1           0       -1.048041   -2.152532    0.238784
     10          1           0        1.483382   -1.887174   -0.193265
     11          1           0        2.355515    0.205908    0.028316
     12          1           0        0.880999    2.346843    0.287719
 ---------------------------------------------------------------------

 SCF Done:  E(RB3LYP) =  -232.168283919     A.U. after   13 cycles

 Excitation energies and oscillator strengths:

 Excited State   1:      Singlet-A      5.1952 eV  238.65 nm  f=0.0042  <S**2>=0.000
      20 -> 22         0.43815
      20 -> 23         0.22814
      21 -> 22        -0.32878
      21 -> 23         0.38404
 This state for optimization and/or second-order correction.
 Total Energy, E(TD-HF/TD-DFT) =  -231.977364129
 Copying the excited state density for this state as the 1-particle RhoCI density.

 The electronic state is 1-A.
 Alpha  occ. eigenvalues --  -10.19714 -10.19165 -10.18546 -10.18413 -10.17684
 Alpha  occ. eigenvalues --  -10.16979  -0.84513  -0.75262  -0.73797  -0.61732
 Alpha  occ. eigenvalues --   -0.59853  -0.52700  -0.47781  -0.43821  -0.42709
 Alpha  occ. eigenvalues --   -0.40539  -0.35710  -0.35372  -0.32660  -0.24858
 Alpha  occ. eigenvalues --   -0.24080
 Alpha virt. eigenvalues --   -0.01512   0.00125   0.10040   0.12834   0.14588
 Alpha virt. eigenvalues --    0.16446   0.18408   0.20155   0.21528   0.29104
 Alpha virt. eigenvalues --    0.29644   0.31429   0.32113   0.46984   0.49254

 Mulliken charges:
               1
     1  C   -0.048426
     2  C   -0.108910
     3  C   -0.046446
     4  C   -0.084476
     5  C   -0.087435
     6  C   -0.088758
     7  H    0.069519
     8  H    0.087701
     9  H    0.078249
    10  H    0.087039
    11  H    0.061608
    12  H    0.080335
 Sum of Mulliken charges =  -0.00000

 Dipole moment (field-independent basis, Debye):
    X=              0.0544    Y=             -0.0469    Z=              0.3862  Tot=              0.3928
 Quadrupole moment (field-independent basis, Debye-Ang):
   XX=            -31.1457   YY=            -32.2131   ZZ=            -38.0157
   XY=             -0.3546   XZ=             -0.6873   YZ=              0.7081

 Normal termination of Gaussian 16 at Fri Nov 10 16:19:20 2023.
