 Gaussian 16, Revision B.01,
 Gaussian 16:  EM64L-G16RevB.01 20-Dec-2017

 ---------------------------------
 # TD=(NStates=1) B3LYP/6-31G(d,p)
 ---------------------------------

 -------
 ABSSPCT
 -------
 Symbolic Z-matrix:
 Charge =  0 Multiplicity = 1

                         Standard orientation:
 ---------------------------------------------------------------------
 Center     Atomic      Atomic             Coordinates (Angstroms)
 Number     Number       Type             X           Y           Z
 ---------------------------------------------------------------------
      1          6           0       -1.239617   -0.607974   -0.021829
      2          6           0       -0.101343   -1.377749    0.069037
      3          6           0        1.221050   -0.763899   -0.000840
      4          6           0        1.233481    0.599169    0.026738
      5          6           0        0.090580    1.373610   -0.039836
      6          6           0       -1.161643    0.772256   -0.098000
      7          1           0       -2.207824   -1.060866    0.124967
      8          1           0       -2.111821    1.294749    0.235378
      9          1           0        0.026900    2.513346    0.198109
     10          1           0        2.380023    1.024555    0.095477
     11          1           0        2.117461   -1.318105   -0.215419
     12          1           0       -0.459783   -2.426160   -0.050130
 ---------------------------------------------------------------------

 SCF Done:  E(RB3LYP) =  -232.211035798     A.U. after   13 cycles

 Excitation energies and oscillator strengths:

 Excited State   1:      Singlet-A      5.3636 eV  231.16 nm  f=0.0031  <S**2>=0.000
      20 -> 22         0.52035
      20 -> 23         0.11093
      21 -> 22        -0.16942
      21 -> 23         0.43317
 This state for optimization and/or second-order correction.
 Total Energy, E(TD-HF/TD-DFT) =  -232.013927916
 Copying the excited state density for this state as the 1-particle RhoCI density.

 The electronic state is 1-A.
 Alpha  occ. eigenvalues --  -10.20128 -10.19850 -10.19732 -10.19398 -10.18997
 Alpha  occ. eigenvalues --  -10.18160  -0.85238  -0.74882  -0.73614  -0.60568
 Alpha  occ. eigenvalues --   -0.58359  -0.51298  -0.44882  -0.44092  -0.41858
 Alpha  occ. eigenvalues --   -0.40468  -0.35833  -0.34164  -0.32440  -0.25230
 Alpha  occ. eigenvalues --   -0.24431
 Alpha virt. eigenvalues --   -0.01430   0.00600   0.06932   0.12334   0.13055
 Alpha virt. eigenvalues --    0.14298   0.16687   0.17112   0.20446   0.28981
 Alpha virt. eigenvalues --    0.29344   0.31542   0.32802   0.46444   0.51415

 Mulliken charges:
               1
     1  C   -0.085220
     2  C   -0.087262
     3  C   -0.089400
     4  C   -0.074901
     5  C   -0.092920
     6  C   -0.086666
     7  H    0.085109
     8  H    0.087650
     9  H    0.086794
    10  H    0.072308
    11  H    0.099797
    12  H    0.084713
 Sum of Mulliken charges =  -0.00000

 Dipole moment (field-independent basis, Debye):
    X=             -0.1274    Y=             -0.1300    Z=              0.1967  Tot=              0.2680
 Quadrupole moment (field-independent basis, Debye-Ang):
   XX=            -31.3720   YY=            -32.8617   ZZ=            -38.5278
   XY=             -0.1344   XZ=             -0.8698   YZ=              0.9912

 Normal termination of Gaussian 16 at Fri Nov 10 17:16:32 2023.
