 Gaussian 16, Revision B.01,
 Gaussian 16:  EM64L-G16RevB.01 20-Dec-2017

 ---------------------------------
 # TD=(NStates=1) B3LYP/6-31G(d,p)
 ---------------------------------

 -------
 ABSSPCT
 -------
 Symbolic Z-matrix:
 Charge =  0 Multiplicity = 1

                         Standard orientation:
 ---------------------------------------------------------------------
 Center     Atomic      Atomic             Coordinates (Angstroms)
 Number     Number       Type             X           Y           Z
 ---------------------------------------------------------------------
      1          6           0        1.003458   -1.025686   -0.061058
      2          6           0        1.357051    0.340610    0.038589
      3          6           0        0.420370    1.340644   -0.003308
      4          6           0       -1.001949    0.978830    0.019316
      5          6           0       -1.388033   -0.321671   -0.041227
      6          6           0       -0.405859   -1.298141    0.072972
      7          1           0        1.636237   -1.893071    0.116434
      8          1           0       -0.768636   -2.223961   -0.079873
      9          1           0       -2.299427   -0.652577   -0.089268
     10          1           0       -1.755571    1.789496    0.069336
     11          1           0        0.766429    2.389749   -0.057000
     12          1           0        2.510735    0.502847   -0.111336
 ---------------------------------------------------------------------

 SCF Done:  E(RB3LYP) =  -232.214231046     A.U. after   14 cycles

 Excitation energies and oscillator strengths:

 Excited State   1:      Singlet-A      5.3671 eV  231.01 nm  f=0.0007  <S**2>=0.000
      20 -> 22         0.50226
      21 -> 22        -0.10225
      21 -> 23         0.48348
 This state for optimization and/or second-order correction.
 Total Energy, E(TD-HF/TD-DFT) =  -232.016992905
 Copying the excited state density for this state as the 1-particle RhoCI density.

 The electronic state is 1-A.
 Alpha  occ. eigenvalues --  -10.19779 -10.19682 -10.19580 -10.19295 -10.17769
 Alpha  occ. eigenvalues --  -10.17267  -0.84510  -0.75121  -0.73082  -0.60749
 Alpha  occ. eigenvalues --   -0.59222  -0.51963  -0.46414  -0.43596  -0.42429
 Alpha  occ. eigenvalues --   -0.40711  -0.36358  -0.33854  -0.32684  -0.25523
 Alpha  occ. eigenvalues --   -0.23867
 Alpha virt. eigenvalues --   -0.01325   0.00590   0.09082   0.13647   0.14780
 Alpha virt. eigenvalues --    0.15564   0.16687   0.17362   0.21427   0.28025
 Alpha virt. eigenvalues --    0.29106   0.31695   0.32688   0.46267   0.47592

 Mulliken charges:
               1
     1  C   -0.094027
     2  C   -0.085982
     3  C   -0.088467
     4  C   -0.095640
     5  C   -0.041489
     6  C   -0.091459
     7  H    0.094482
     8  H    0.074386
     9  H    0.074892
    10  H    0.082862
    11  H    0.093058
    12  H    0.077382
 Sum of Mulliken charges =  -0.00000

 Dipole moment (field-independent basis, Debye):
    X=             -0.2114    Y=             -0.0765    Z=             -0.0849  Tot=              0.2404
 Quadrupole moment (field-independent basis, Debye-Ang):
   XX=            -31.5794   YY=            -31.6192   ZZ=            -38.4790
   XY=              0.1172   XZ=              0.0491   YZ=             -0.0551

 Normal termination of Gaussian 16 at Fri Nov 10 18:54:50 2023.
