 Gaussian 16, Revision B.01,
 Gaussian 16:  EM64L-G16RevB.01 20-Dec-2017

 ---------------------------------
 # TD=(NStates=1) B3LYP/6-31G(d,p)
 ---------------------------------

 -------
 ABSSPCT
 -------
 Symbolic Z-matrix:
 Charge =  0 Multiplicity = 1

                         Standard orientation:
 ---------------------------------------------------------------------
 Center     Atomic      Atomic             Coordinates (Angstroms)
 Number     Number       Type             X           Y           Z
 ---------------------------------------------------------------------
      1          6           0       -1.319905   -0.563232    0.030337
      2          6           0       -0.143519   -1.343392   -0.047439
      3          6           0        1.110343   -0.841492    0.029771
      4          6           0        1.322496    0.588036    0.000183
      5          6           0        0.163726    1.411042   -0.012774
      6          6           0       -1.119504    0.834552   -0.033673
      7          1           0       -2.444590   -1.089189   -0.043766
      8          1           0       -1.923078    1.505877    0.183464
      9          1           0        0.329348    2.405853   -0.088024
     10          1           0        2.313108    0.701207    0.160563
     11          1           0        1.834822   -1.683665   -0.154300
     12          1           0       -0.191432   -2.353173    0.143628
 ---------------------------------------------------------------------

 SCF Done:  E(RB3LYP) =  -232.199811227     A.U. after   13 cycles

 Excitation energies and oscillator strengths:

 Excited State   1:      Singlet-A      5.2973 eV  234.05 nm  f=0.0011  <S**2>=0.000
      20 -> 22         0.52760
      21 -> 23        -0.46090
 This state for optimization and/or second-order correction.
 Total Energy, E(TD-HF/TD-DFT) =  -232.005139132
 Copying the excited state density for this state as the 1-particle RhoCI density.

 The electronic state is 1-A.
 Alpha  occ. eigenvalues --  -10.20713 -10.19241 -10.19122 -10.18980 -10.18617
 Alpha  occ. eigenvalues --  -10.17485  -0.84417  -0.74779  -0.73534  -0.61163
 Alpha  occ. eigenvalues --   -0.59218  -0.51751  -0.46563  -0.43397  -0.41530
 Alpha  occ. eigenvalues --   -0.40865  -0.35589  -0.33907  -0.33142  -0.24885
 Alpha  occ. eigenvalues --   -0.24277
 Alpha virt. eigenvalues --   -0.01182   0.00208   0.07854   0.12679   0.14816
 Alpha virt. eigenvalues --    0.15351   0.16990   0.18232   0.19945   0.28435
 Alpha virt. eigenvalues --    0.29505   0.29916   0.32626   0.45591   0.48950

 Mulliken charges:
               1
     1  C   -0.090583
     2  C   -0.067467
     3  C   -0.105446
     4  C   -0.078102
     5  C   -0.085339
     6  C   -0.090946
     7  H    0.081602
     8  H    0.089275
     9  H    0.089876
    10  H    0.092240
    11  H    0.086463
    12  H    0.078426
 Sum of Mulliken charges =  -0.00000

 Dipole moment (field-independent basis, Debye):
    X=              0.0836    Y=             -0.0148    Z=              0.1221  Tot=              0.1487
 Quadrupole moment (field-independent basis, Debye-Ang):
   XX=            -31.7714   YY=            -31.6013   ZZ=            -38.4891
   XY=             -0.2489   XZ=             -0.1466   YZ=              0.1316

 Normal termination of Gaussian 16 at Fri Nov 10 19:20:01 2023.
