 Gaussian 16, Revision B.01,
 Gaussian 16:  EM64L-G16RevB.01 20-Dec-2017

 ---------------------------------
 # TD=(NStates=1) B3LYP/6-31G(d,p)
 ---------------------------------

 -------
 ABSSPCT
 -------
 Symbolic Z-matrix:
 Charge =  0 Multiplicity = 1

                         Standard orientation:
 ---------------------------------------------------------------------
 Center     Atomic      Atomic             Coordinates (Angstroms)
 Number     Number       Type             X           Y           Z
 ---------------------------------------------------------------------
      1          6           0       -1.394737    0.373898   -0.048214
      2          6           0       -0.340340    1.353106    0.037050
      3          6           0        1.023596    0.966976    0.000215
      4          6           0        1.376791   -0.364273   -0.004219
      5          6           0        0.384315   -1.330501   -0.052050
      6          6           0       -1.002055   -1.001964    0.063958
      7          1           0       -2.523983    0.636156   -0.057411
      8          1           0       -1.763204   -1.695654   -0.004255
      9          1           0        0.504963   -2.371184    0.099235
     10          1           0        2.410774   -0.673874   -0.033359
     11          1           0        1.701200    1.717878    0.042145
     12          1           0       -0.615162    2.403224   -0.026792
 ---------------------------------------------------------------------

 SCF Done:  E(RB3LYP) =  -232.233765636     A.U. after   13 cycles

 Excitation energies and oscillator strengths:

 Excited State   1:      Singlet-A      5.3185 eV  233.12 nm  f=0.0002  <S**2>=0.000
      20 -> 22         0.48273
      21 -> 23         0.50754
 This state for optimization and/or second-order correction.
 Total Energy, E(TD-HF/TD-DFT) =  -232.038312608
 Copying the excited state density for this state as the 1-particle RhoCI density.

 The electronic state is 1-A.
 Alpha  occ. eigenvalues --  -10.20142 -10.19388 -10.18869 -10.18713 -10.18662
 Alpha  occ. eigenvalues --  -10.18332  -0.84039  -0.74145  -0.73402  -0.60116
 Alpha  occ. eigenvalues --   -0.59699  -0.51630  -0.46737  -0.43646  -0.41997
 Alpha  occ. eigenvalues --   -0.40944  -0.35532  -0.34476  -0.33144  -0.24719
 Alpha  occ. eigenvalues --   -0.24227
 Alpha virt. eigenvalues --   -0.00441  -0.00246   0.09512   0.13745   0.14770
 Alpha virt. eigenvalues --    0.15459   0.17389   0.18862   0.19401   0.28878
 Alpha virt. eigenvalues --    0.29526   0.30588   0.31220   0.47212   0.49959

 Mulliken charges:
               1
     1  C   -0.093486
     2  C   -0.095802
     3  C   -0.068054
     4  C   -0.078182
     5  C   -0.088642
     6  C   -0.088240
     7  H    0.085366
     8  H    0.085796
     9  H    0.085968
    10  H    0.088022
    11  H    0.082610
    12  H    0.084643
 Sum of Mulliken charges =  -0.00000

 Dipole moment (field-independent basis, Debye):
    X=             -0.0011    Y=              0.0137    Z=              0.0142  Tot=              0.0197
 Quadrupole moment (field-independent basis, Debye-Ang):
   XX=            -31.2006   YY=            -31.6297   ZZ=            -38.6221
   XY=              0.3638   XZ=              0.1653   YZ=             -0.2070

 Normal termination of Gaussian 16 at Fri Nov 10 19:13:38 2023.
