 Gaussian 16, Revision B.01,
 Gaussian 16:  EM64L-G16RevB.01 20-Dec-2017

 ---------------------------------
 # TD=(NStates=1) B3LYP/6-31G(d,p)
 ---------------------------------

 -------
 ABSSPCT
 -------
 Symbolic Z-matrix:
 Charge =  0 Multiplicity = 1

                         Standard orientation:
 ---------------------------------------------------------------------
 Center     Atomic      Atomic             Coordinates (Angstroms)
 Number     Number       Type             X           Y           Z
 ---------------------------------------------------------------------
      1          6           0       -1.375937   -0.337793   -0.009473
      2          6           0       -0.999275    1.008101    0.069326
      3          6           0        0.412879    1.309030   -0.023703
      4          6           0        1.421872    0.366439    0.034258
      5          6           0        0.946852   -1.018565   -0.042786
      6          6           0       -0.402972   -1.388981   -0.039663
      7          1           0       -2.454251   -0.507825   -0.105555
      8          1           0       -0.692785   -2.394614    0.286983
      9          1           0        1.867141   -1.606809   -0.049745
     10          1           0        2.465501    0.543937    0.124031
     11          1           0        0.523319    2.471323   -0.150648
     12          1           0       -1.729442    1.864607   -0.032818
 ---------------------------------------------------------------------

 SCF Done:  E(RB3LYP) =  -232.220776631     A.U. after   13 cycles

 Excitation energies and oscillator strengths:

 Excited State   1:      Singlet-A      5.1466 eV  240.91 nm  f=0.0003  <S**2>=0.000
      20 -> 22        -0.40373
      20 -> 23        -0.25844
      21 -> 22        -0.30203
      21 -> 23         0.42232
 This state for optimization and/or second-order correction.
 Total Energy, E(TD-HF/TD-DFT) =  -232.031644129
 Copying the excited state density for this state as the 1-particle RhoCI density.

 The electronic state is 1-A.
 Alpha  occ. eigenvalues --  -10.20097 -10.19847 -10.19793 -10.19646 -10.19593
 Alpha  occ. eigenvalues --  -10.19425  -0.83759  -0.73929  -0.73168  -0.59841
 Alpha  occ. eigenvalues --   -0.59098  -0.50985  -0.45854  -0.43989  -0.41531
 Alpha  occ. eigenvalues --   -0.40778  -0.35150  -0.34434  -0.32398  -0.24442
 Alpha  occ. eigenvalues --   -0.24123
 Alpha virt. eigenvalues --   -0.00788  -0.00707   0.08131   0.12498   0.13885
 Alpha virt. eigenvalues --    0.14411   0.16695   0.18102   0.18479   0.26671
 Alpha virt. eigenvalues --    0.28404   0.30717   0.32975   0.45918   0.48610

 Mulliken charges:
               1
     1  C   -0.096762
     2  C   -0.079865
     3  C   -0.083443
     4  C   -0.083767
     5  C   -0.093549
     6  C   -0.095632
     7  H    0.088006
     8  H    0.100353
     9  H    0.086630
    10  H    0.096581
    11  H    0.071018
    12  H    0.090429
 Sum of Mulliken charges =  -0.00000

 Dipole moment (field-independent basis, Debye):
    X=              0.0658    Y=              0.0517    Z=              0.0713  Tot=              0.1099
 Quadrupole moment (field-independent basis, Debye-Ang):
   XX=            -30.9377   YY=            -32.5465   ZZ=            -38.7988
   XY=             -0.5071   XZ=              0.2444   YZ=             -0.7939

 Normal termination of Gaussian 16 at Fri Nov 10 17:05:03 2023.
