 Gaussian 16, Revision B.01,
 Gaussian 16:  EM64L-G16RevB.01 20-Dec-2017

 ---------------------------------
 # TD=(NStates=1) B3LYP/6-31G(d,p)
 ---------------------------------

 -------
 ABSSPCT
 -------
 Symbolic Z-matrix:
 Charge =  0 Multiplicity = 1

                         Standard orientation:
 ---------------------------------------------------------------------
 Center     Atomic      Atomic             Coordinates (Angstroms)
 Number     Number       Type             X           Y           Z
 ---------------------------------------------------------------------
      1          6           0       -1.325887    0.462963    0.044543
      2          6           0       -1.112670   -0.873704   -0.009820
      3          6           0        0.210743   -1.384929   -0.075132
      4          6           0        1.313254   -0.494297    0.065766
      5          6           0        1.104125    0.841352   -0.031073
      6          6           0       -0.196996    1.393905   -0.049985
      7          1           0       -2.317026    0.850735   -0.108125
      8          1           0       -0.296127    2.589626    0.120411
      9          1           0        1.806074    1.440281    0.104677
     10          1           0        2.216945   -0.695304   -0.032827
     11          1           0        0.651636   -2.447465    0.070763
     12          1           0       -2.016916   -1.409615    0.179303
 ---------------------------------------------------------------------

 SCF Done:  E(RB3LYP) =  -232.170035278     A.U. after   14 cycles

 Excitation energies and oscillator strengths:

 Excited State   1:      Singlet-A      5.3362 eV  232.35 nm  f=0.0006  <S**2>=0.000
      20 -> 22         0.50177
      21 -> 23        -0.48886
 This state for optimization and/or second-order correction.
 Total Energy, E(TD-HF/TD-DFT) =  -231.973934673
 Copying the excited state density for this state as the 1-particle RhoCI density.

 The electronic state is 1-A.
 Alpha  occ. eigenvalues --  -10.20380 -10.20258 -10.19136 -10.19038 -10.16967
 Alpha  occ. eigenvalues --  -10.16651  -0.84760  -0.76194  -0.72679  -0.61136
 Alpha  occ. eigenvalues --   -0.60015  -0.51732  -0.47048  -0.44395  -0.42787
 Alpha  occ. eigenvalues --   -0.39443  -0.36800  -0.33433  -0.32808  -0.25691
 Alpha  occ. eigenvalues --   -0.23807
 Alpha virt. eigenvalues --   -0.01586   0.00497   0.08989   0.12230   0.14231
 Alpha virt. eigenvalues --    0.15758   0.17192   0.18658   0.22197   0.27734
 Alpha virt. eigenvalues --    0.29793   0.30727   0.32461   0.46697   0.49270

 Mulliken charges:
               1
     1  C   -0.093088
     2  C   -0.079445
     3  C   -0.106997
     4  C   -0.044873
     5  C   -0.048891
     6  C   -0.103131
     7  H    0.090696
     8  H    0.077188
     9  H    0.062141
    10  H    0.068375
    11  H    0.085359
    12  H    0.092668
 Sum of Mulliken charges =  -0.00000

 Dipole moment (field-independent basis, Debye):
    X=              0.1587    Y=              0.1126    Z=              0.2029  Tot=              0.2812
 Quadrupole moment (field-independent basis, Debye-Ang):
   XX=            -30.8108   YY=            -32.5763   ZZ=            -38.3238
   XY=             -0.0296   XZ=              0.0331   YZ=             -0.0330

 Normal termination of Gaussian 16 at Fri Nov 10 18:02:04 2023.
