 Gaussian 16, Revision B.01,
 Gaussian 16:  EM64L-G16RevB.01 20-Dec-2017

 ---------------------------------
 # TD=(NStates=1) B3LYP/6-31G(d,p)
 ---------------------------------

 -------
 ABSSPCT
 -------
 Symbolic Z-matrix:
 Charge =  0 Multiplicity = 1

                         Standard orientation:
 ---------------------------------------------------------------------
 Center     Atomic      Atomic             Coordinates (Angstroms)
 Number     Number       Type             X           Y           Z
 ---------------------------------------------------------------------
      1          6           0       -1.197369    0.717951   -0.106548
      2          6           0        0.009775    1.406408    0.059227
      3          6           0        1.247816    0.663933    0.021260
      4          6           0        1.220511   -0.723142   -0.027793
      5          6           0       -0.043470   -1.334742    0.046868
      6          6           0       -1.244524   -0.693023   -0.057602
      7          1           0       -2.183583    1.280205    0.212592
      8          1           0       -2.182681   -1.296751    0.162748
      9          1           0        0.026345   -2.479440    0.149865
     10          1           0        2.075478   -1.211392   -0.140795
     11          1           0        2.278738    1.031292   -0.015496
     12          1           0        0.029268    2.451775    0.018607
 ---------------------------------------------------------------------

 SCF Done:  E(RB3LYP) =  -232.220030757     A.U. after   13 cycles

 Excitation energies and oscillator strengths:

 Excited State   1:      Singlet-A      5.3298 eV  232.63 nm  f=0.0014  <S**2>=0.000
      20 -> 22         0.29492
      20 -> 23        -0.36572
      21 -> 22         0.43260
      21 -> 23         0.30276
 This state for optimization and/or second-order correction.
 Total Energy, E(TD-HF/TD-DFT) =  -232.024165554
 Copying the excited state density for this state as the 1-particle RhoCI density.

 The electronic state is 1-A.
 Alpha  occ. eigenvalues --  -10.20026 -10.19464 -10.19310 -10.19242 -10.19116
 Alpha  occ. eigenvalues --  -10.17842  -0.84700  -0.74557  -0.73613  -0.59858
 Alpha  occ. eigenvalues --   -0.59484  -0.51859  -0.45371  -0.44020  -0.41878
 Alpha  occ. eigenvalues --   -0.41210  -0.35788  -0.34131  -0.32754  -0.24951
 Alpha  occ. eigenvalues --   -0.24416
 Alpha virt. eigenvalues --   -0.00750  -0.00184   0.08124   0.13445   0.13765
 Alpha virt. eigenvalues --    0.14835   0.17310   0.17797   0.20324   0.28534
 Alpha virt. eigenvalues --    0.29202   0.30912   0.32998   0.46190   0.50122

 Mulliken charges:
               1
     1  C   -0.108201
     2  C   -0.084099
     3  C   -0.091523
     4  C   -0.053351
     5  C   -0.081230
     6  C   -0.083130
     7  H    0.081366
     8  H    0.095041
     9  H    0.069698
    10  H    0.080379
    11  H    0.083979
    12  H    0.091071
 Sum of Mulliken charges =  -0.00000

 Dipole moment (field-independent basis, Debye):
    X=              0.2638    Y=             -0.0926    Z=              0.2139  Tot=              0.3520
 Quadrupole moment (field-independent basis, Debye-Ang):
   XX=            -31.3022   YY=            -32.3718   ZZ=            -38.5175
   XY=             -0.0892   XZ=             -0.9665   YZ=             -0.0368

 Normal termination of Gaussian 16 at Fri Nov 10 16:30:30 2023.
