 Gaussian 16, Revision B.01,
 Gaussian 16:  EM64L-G16RevB.01 20-Dec-2017

 ---------------------------------
 # TD=(NStates=1) B3LYP/6-31G(d,p)
 ---------------------------------

 -------
 ABSSPCT
 -------
 Symbolic Z-matrix:
 Charge =  0 Multiplicity = 1

                         Standard orientation:
 ---------------------------------------------------------------------
 Center     Atomic      Atomic             Coordinates (Angstroms)
 Number     Number       Type             X           Y           Z
 ---------------------------------------------------------------------
      1          6           0       -1.089713   -0.855496   -0.070420
      2          6           0       -1.426746    0.457149    0.056091
      3          6           0       -0.266188    1.304361    0.002751
      4          6           0        1.113048    0.893431   -0.052029
      5          6           0        1.353186   -0.487624   -0.000150
      6          6           0        0.343111   -1.324883    0.005237
      7          1           0       -2.035818   -1.529190   -0.210368
      8          1           0        0.393064   -2.316081    0.142476
      9          1           0        2.474560   -0.868453    0.205060
     10          1           0        1.770027    1.802159    0.041104
     11          1           0       -0.248076    2.381459   -0.118228
     12          1           0       -2.513948    0.608476    0.291078
 ---------------------------------------------------------------------

 SCF Done:  E(RB3LYP) =  -232.191107658     A.U. after   13 cycles

 Excitation energies and oscillator strengths:

 Excited State   1:      Singlet-A      5.3259 eV  232.80 nm  f=0.0052  <S**2>=0.000
      20 -> 22        -0.42539
      21 -> 22        -0.14440
      21 -> 23         0.54235
 This state for optimization and/or second-order correction.
 Total Energy, E(TD-HF/TD-DFT) =  -231.995386224
 Copying the excited state density for this state as the 1-particle RhoCI density.

 The electronic state is 1-A.
 Alpha  occ. eigenvalues --  -10.20127 -10.19759 -10.19747 -10.19658 -10.19536
 Alpha  occ. eigenvalues --  -10.18374  -0.84553  -0.75373  -0.72848  -0.60187
 Alpha  occ. eigenvalues --   -0.58322  -0.51483  -0.45512  -0.44380  -0.41949
 Alpha  occ. eigenvalues --   -0.39290  -0.36111  -0.34315  -0.31869  -0.25993
 Alpha  occ. eigenvalues --   -0.23160
 Alpha virt. eigenvalues --   -0.01053   0.00501   0.07367   0.10909   0.12939
 Alpha virt. eigenvalues --    0.15384   0.16635   0.18289   0.18943   0.26383
 Alpha virt. eigenvalues --    0.28179   0.31109   0.33553   0.45472   0.48891

 Mulliken charges:
               1
     1  C   -0.110078
     2  C   -0.066018
     3  C   -0.107068
     4  C   -0.094110
     5  C   -0.078251
     6  C   -0.063567
     7  H    0.079801
     8  H    0.085161
     9  H    0.077551
    10  H    0.096958
    11  H    0.076926
    12  H    0.102695
 Sum of Mulliken charges =  -0.00000

 Dipole moment (field-independent basis, Debye):
    X=             -0.1911    Y=             -0.0267    Z=              0.2475  Tot=              0.3138
 Quadrupole moment (field-independent basis, Debye-Ang):
   XX=            -31.2879   YY=            -32.3382   ZZ=            -38.6582
   XY=              0.7615   XZ=              0.1633   YZ=             -0.1842

 Normal termination of Gaussian 16 at Fri Nov 10 17:25:22 2023.
