 Gaussian 16, Revision B.01,
 Gaussian 16:  EM64L-G16RevB.01 20-Dec-2017

 ---------------------------------
 # TD=(NStates=1) B3LYP/6-31G(d,p)
 ---------------------------------

 -------
 ABSSPCT
 -------
 Symbolic Z-matrix:
 Charge =  0 Multiplicity = 1

                         Standard orientation:
 ---------------------------------------------------------------------
 Center     Atomic      Atomic             Coordinates (Angstroms)
 Number     Number       Type             X           Y           Z
 ---------------------------------------------------------------------
      1          6           0       -0.176944    1.378775    0.013722
      2          6           0       -1.275426    0.587363    0.029294
      3          6           0       -1.166561   -0.826877   -0.030741
      4          6           0        0.151086   -1.403115    0.056147
      5          6           0        1.250370   -0.584094   -0.019445
      6          6           0        1.140332    0.828688   -0.061625
      7          1           0       -0.157268    2.453743   -0.016236
      8          1           0        2.075243    1.431219    0.060260
      9          1           0        2.423709   -0.891291    0.159484
     10          1           0        0.420301   -2.401868   -0.086750
     11          1           0       -2.021656   -1.344878   -0.119517
     12          1           0       -2.277471    0.868633    0.078652
 ---------------------------------------------------------------------

 SCF Done:  E(RB3LYP) =  -232.217002400     A.U. after   13 cycles

 Excitation energies and oscillator strengths:

 Excited State   1:      Singlet-A      5.3783 eV  230.53 nm  f=0.0007  <S**2>=0.000
      20 -> 22         0.51600
      21 -> 23         0.47592
 This state for optimization and/or second-order correction.
 Total Energy, E(TD-HF/TD-DFT) =  -232.019352837
 Copying the excited state density for this state as the 1-particle RhoCI density.

 The electronic state is 1-A.
 Alpha  occ. eigenvalues --  -10.19731 -10.19302 -10.18971 -10.18893 -10.18812
 Alpha  occ. eigenvalues --  -10.18441  -0.84483  -0.74578  -0.73626  -0.61109
 Alpha  occ. eigenvalues --   -0.58888  -0.51914  -0.46026  -0.44385  -0.42032
 Alpha  occ. eigenvalues --   -0.40324  -0.35919  -0.35425  -0.31622  -0.25300
 Alpha  occ. eigenvalues --   -0.24026
 Alpha virt. eigenvalues --   -0.01213   0.00645   0.08189   0.13058   0.14716
 Alpha virt. eigenvalues --    0.15798   0.17133   0.18667   0.19654   0.28183
 Alpha virt. eigenvalues --    0.29485   0.30484   0.33208   0.46731   0.51819

 Mulliken charges:
               1
     1  C   -0.083914
     2  C   -0.069358
     3  C   -0.088213
     4  C   -0.084481
     5  C   -0.085033
     6  C   -0.090619
     7  H    0.084517
     8  H    0.089771
     9  H    0.070313
    10  H    0.089357
    11  H    0.083548
    12  H    0.084112
 Sum of Mulliken charges =  -0.00000

 Dipole moment (field-independent basis, Debye):
    X=             -0.1323    Y=              0.0808    Z=              0.0285  Tot=              0.1576
 Quadrupole moment (field-independent basis, Debye-Ang):
   XX=            -30.9658   YY=            -32.3443   ZZ=            -38.5433
   XY=              0.6012   XZ=              0.4404   YZ=              0.3471

 Normal termination of Gaussian 16 at Fri Nov 10 16:42:07 2023.
