 Gaussian 16, Revision B.01,
 Gaussian 16:  EM64L-G16RevB.01 20-Dec-2017

 ---------------------------------
 # TD=(NStates=1) B3LYP/6-31G(d,p)
 ---------------------------------

 -------
 ABSSPCT
 -------
 Symbolic Z-matrix:
 Charge =  0 Multiplicity = 1

                         Standard orientation:
 ---------------------------------------------------------------------
 Center     Atomic      Atomic             Coordinates (Angstroms)
 Number     Number       Type             X           Y           Z
 ---------------------------------------------------------------------
      1          6           0       -1.049879    0.903649   -0.039160
      2          6           0        0.274986    1.367864    0.038750
      3          6           0        1.301657    0.412428   -0.054379
      4          6           0        1.063621   -0.887297   -0.039721
      5          6           0       -0.252024   -1.365891    0.010560
      6          6           0       -1.310736   -0.470435   -0.024279
      7          1           0       -2.062380    1.637805   -0.051822
      8          1           0       -2.352693   -0.732628    0.029640
      9          1           0       -0.583275   -2.353925    0.278783
     10          1           0        1.861568   -1.681853    0.096287
     11          1           0        2.410792    0.884355   -0.014743
     12          1           0        0.560243    2.484335    0.311231
 ---------------------------------------------------------------------

 SCF Done:  E(RB3LYP) =  -232.213939730     A.U. after   13 cycles

 Excitation energies and oscillator strengths:

 Excited State   1:      Singlet-A      5.5511 eV  223.35 nm  f=0.0001  <S**2>=0.000
      20 -> 22         0.51298
      21 -> 23        -0.48613
 This state for optimization and/or second-order correction.
 Total Energy, E(TD-HF/TD-DFT) =  -232.009939318
 Copying the excited state density for this state as the 1-particle RhoCI density.

 The electronic state is 1-A.
 Alpha  occ. eigenvalues --  -10.20440 -10.20217 -10.19678 -10.19110 -10.18783
 Alpha  occ. eigenvalues --  -10.18601  -0.85518  -0.74651  -0.73645  -0.60018
 Alpha  occ. eigenvalues --   -0.58619  -0.50991  -0.45144  -0.43528  -0.41188
 Alpha  occ. eigenvalues --   -0.40512  -0.37014  -0.33513  -0.32424  -0.25504
 Alpha  occ. eigenvalues --   -0.24473
 Alpha virt. eigenvalues --   -0.00635   0.00763   0.06214   0.11001   0.12963
 Alpha virt. eigenvalues --    0.14966   0.16255   0.17544   0.18997   0.29158
 Alpha virt. eigenvalues --    0.29849   0.31815   0.33732   0.46120   0.52030

 Mulliken charges:
               1
     1  C   -0.086955
     2  C   -0.092209
     3  C   -0.079748
     4  C   -0.079494
     5  C   -0.091570
     6  C   -0.075034
     7  H    0.069726
     8  H    0.088076
     9  H    0.090316
    10  H    0.088861
    11  H    0.077498
    12  H    0.090534
 Sum of Mulliken charges =  -0.00000

 Dipole moment (field-independent basis, Debye):
    X=             -0.0838    Y=             -0.1141    Z=              0.3930  Tot=              0.4177
 Quadrupole moment (field-independent basis, Debye-Ang):
   XX=            -31.8191   YY=            -32.2303   ZZ=            -38.6258
   XY=              0.4224   XZ=              0.1241   YZ=             -0.1467

 Normal termination of Gaussian 16 at Fri Nov 10 16:22:08 2023.
