 Gaussian 16, Revision B.01,
 Gaussian 16:  EM64L-G16RevB.01 20-Dec-2017

 ---------------------------------
 # TD=(NStates=1) B3LYP/6-31G(d,p)
 ---------------------------------

 -------
 ABSSPCT
 -------
 Symbolic Z-matrix:
 Charge =  0 Multiplicity = 1

                         Standard orientation:
 ---------------------------------------------------------------------
 Center     Atomic      Atomic             Coordinates (Angstroms)
 Number     Number       Type             X           Y           Z
 ---------------------------------------------------------------------
      1          6           0       -1.406210   -0.462106   -0.000312
      2          6           0       -0.270844   -1.381921   -0.047705
      3          6           0        1.039416   -0.914422   -0.024246
      4          6           0        1.398864    0.433665   -0.007668
      5          6           0        0.303320    1.287521    0.060454
      6          6           0       -1.039193    0.993428   -0.045053
      7          1           0       -2.530868   -0.703439    0.152007
      8          1           0       -1.873616    1.824405   -0.007543
      9          1           0        0.547395    2.332632    0.006056
     10          1           0        2.432775    0.818942   -0.048784
     11          1           0        1.883475   -1.728774    0.162305
     12          1           0       -0.611279   -2.280765    0.123141
 ---------------------------------------------------------------------

 SCF Done:  E(RB3LYP) =  -232.204050551     A.U. after   13 cycles

 Excitation energies and oscillator strengths:

 Excited State   1:      Singlet-A      5.2442 eV  236.42 nm  f=0.0020  <S**2>=0.000
      20 -> 22         0.53331
      21 -> 23         0.45625
 This state for optimization and/or second-order correction.
 Total Energy, E(TD-HF/TD-DFT) =  -232.011328443
 Copying the excited state density for this state as the 1-particle RhoCI density.

 The electronic state is 1-A.
 Alpha  occ. eigenvalues --  -10.21204 -10.20401 -10.20198 -10.19467 -10.18689
 Alpha  occ. eigenvalues --  -10.18487  -0.84057  -0.74183  -0.72985  -0.59587
 Alpha  occ. eigenvalues --   -0.59318  -0.50978  -0.46023  -0.43726  -0.41780
 Alpha  occ. eigenvalues --   -0.40080  -0.35586  -0.35004  -0.31448  -0.24931
 Alpha  occ. eigenvalues --   -0.24007
 Alpha virt. eigenvalues --   -0.01554   0.00411   0.07772   0.12196   0.13114
 Alpha virt. eigenvalues --    0.14724   0.15970   0.18303   0.18987   0.26648
 Alpha virt. eigenvalues --    0.28336   0.29724   0.33681   0.46195   0.49405

 Mulliken charges:
               1
     1  C   -0.121937
     2  C   -0.061699
     3  C   -0.094136
     4  C   -0.073233
     5  C   -0.078836
     6  C   -0.088323
     7  H    0.096924
     8  H    0.087004
     9  H    0.074833
    10  H    0.100820
    11  H    0.073838
    12  H    0.084744
 Sum of Mulliken charges =  -0.00000

 Dipole moment (field-independent basis, Debye):
    X=             -0.0613    Y=              0.0808    Z=              0.2422  Tot=              0.2626
 Quadrupole moment (field-independent basis, Debye-Ang):
   XX=            -30.8375   YY=            -32.3532   ZZ=            -38.8762
   XY=              0.5020   XZ=             -0.2977   YZ=             -0.5987

 Normal termination of Gaussian 16 at Fri Nov 10 18:10:55 2023.
