 Gaussian 16, Revision B.01,
 Gaussian 16:  EM64L-G16RevB.01 20-Dec-2017

 ---------------------------------
 # TD=(NStates=1) B3LYP/6-31G(d,p)
 ---------------------------------

 -------
 ABSSPCT
 -------
 Symbolic Z-matrix:
 Charge =  0 Multiplicity = 1

                         Standard orientation:
 ---------------------------------------------------------------------
 Center     Atomic      Atomic             Coordinates (Angstroms)
 Number     Number       Type             X           Y           Z
 ---------------------------------------------------------------------
      1          6           0        1.387708   -0.112384   -0.016836
      2          6           0        0.646685   -1.197207   -0.003120
      3          6           0       -0.792450   -1.114541   -0.017333
      4          6           0       -1.467040    0.093979    0.048224
      5          6           0       -0.623492    1.179420   -0.013923
      6          6           0        0.794690    1.123142   -0.053081
      7          1           0        2.382660   -0.103001    0.101575
      8          1           0        1.482154    2.054454    0.126186
      9          1           0       -0.845513    2.271293    0.110965
     10          1           0       -2.657923    0.254177   -0.091515
     11          1           0       -1.115727   -2.101120   -0.009472
     12          1           0        1.077742   -2.210257    0.098669
 ---------------------------------------------------------------------

 SCF Done:  E(RB3LYP) =  -232.204946965     A.U. after   13 cycles

 Excitation energies and oscillator strengths:

 Excited State   1:      Singlet-A      5.5531 eV  223.27 nm  f=0.0044  <S**2>=0.000
      20 -> 22        -0.43094
      20 -> 23        -0.13269
      21 -> 22        -0.23015
      21 -> 23         0.49319
 This state for optimization and/or second-order correction.
 Total Energy, E(TD-HF/TD-DFT) =  -232.000873149
 Copying the excited state density for this state as the 1-particle RhoCI density.

 The electronic state is 1-A.
 Alpha  occ. eigenvalues --  -10.20603 -10.19119 -10.19056 -10.18818 -10.18227
 Alpha  occ. eigenvalues --  -10.16749  -0.85622  -0.75582  -0.73404  -0.60460
 Alpha  occ. eigenvalues --   -0.59478  -0.52032  -0.44817  -0.44751  -0.42660
 Alpha  occ. eigenvalues --   -0.39420  -0.36528  -0.34279  -0.32251  -0.26057
 Alpha  occ. eigenvalues --   -0.23886
 Alpha virt. eigenvalues --   -0.00505   0.00809   0.07658   0.12073   0.13797
 Alpha virt. eigenvalues --    0.15774   0.16553   0.18993   0.20917   0.28005
 Alpha virt. eigenvalues --    0.30332   0.31531   0.34978   0.46025   0.51876

 Mulliken charges:
               1
     1  C   -0.039768
     2  C   -0.092385
     3  C   -0.087286
     4  C   -0.082726
     5  C   -0.091495
     6  C   -0.099142
     7  H    0.072615
     8  H    0.082978
     9  H    0.080684
    10  H    0.092720
    11  H    0.082505
    12  H    0.081300
 Sum of Mulliken charges =  -0.00000

 Dipole moment (field-independent basis, Debye):
    X=              0.2185    Y=             -0.0884    Z=              0.1933  Tot=              0.3048
 Quadrupole moment (field-independent basis, Debye-Ang):
   XX=            -31.8679   YY=            -31.8006   ZZ=            -38.4040
   XY=              0.2333   XZ=              0.6062   YZ=              0.2400

 Normal termination of Gaussian 16 at Fri Nov 10 16:30:36 2023.
