 Gaussian 16, Revision B.01,
 Gaussian 16:  EM64L-G16RevB.01 20-Dec-2017

 ---------------------------------
 # TD=(NStates=1) B3LYP/6-31G(d,p)
 ---------------------------------

 -------
 ABSSPCT
 -------
 Symbolic Z-matrix:
 Charge =  0 Multiplicity = 1

                         Standard orientation:
 ---------------------------------------------------------------------
 Center     Atomic      Atomic             Coordinates (Angstroms)
 Number     Number       Type             X           Y           Z
 ---------------------------------------------------------------------
      1          6           0       -1.035352   -0.931695   -0.004073
      2          6           0       -1.400423    0.442359   -0.079797
      3          6           0       -0.291462    1.340531    0.080937
      4          6           0        1.066486    0.957485   -0.026483
      5          6           0        1.380580   -0.467271   -0.061187
      6          6           0        0.296465   -1.346453    0.035019
      7          1           0       -1.925068   -1.637431    0.018060
      8          1           0        0.379454   -2.400064    0.216557
      9          1           0        2.504516   -0.763280   -0.072394
     10          1           0        1.775889    1.628205    0.129835
     11          1           0       -0.388959    2.441980    0.031330
     12          1           0       -2.443592    0.760858    0.010118
 ---------------------------------------------------------------------

 SCF Done:  E(RB3LYP) =  -232.225612355     A.U. after   13 cycles

 Excitation energies and oscillator strengths:

 Excited State   1:      Singlet-A      5.2224 eV  237.41 nm  f=0.0032  <S**2>=0.000
      20 -> 22         0.45273
      20 -> 23         0.23887
      21 -> 22         0.31196
      21 -> 23        -0.37455
 This state for optimization and/or second-order correction.
 Total Energy, E(TD-HF/TD-DFT) =  -232.033692610
 Copying the excited state density for this state as the 1-particle RhoCI density.

 The electronic state is 1-A.
 Alpha  occ. eigenvalues --  -10.20597 -10.19760 -10.19656 -10.19419 -10.19063
 Alpha  occ. eigenvalues --  -10.18599  -0.83751  -0.73852  -0.73323  -0.60051
 Alpha  occ. eigenvalues --   -0.59095  -0.51314  -0.46141  -0.43677  -0.41437
 Alpha  occ. eigenvalues --   -0.40797  -0.35430  -0.34881  -0.32450  -0.24514
 Alpha  occ. eigenvalues --   -0.24313
 Alpha virt. eigenvalues --   -0.01269   0.00134   0.08522   0.13276   0.14188
 Alpha virt. eigenvalues --    0.14653   0.16580   0.18067   0.19497   0.28008
 Alpha virt. eigenvalues --    0.28399   0.30364   0.31565   0.46991   0.49818

 Mulliken charges:
               1
     1  C   -0.093247
     2  C   -0.087296
     3  C   -0.096275
     4  C   -0.075422
     5  C   -0.096532
     6  C   -0.073638
     7  H    0.085410
     8  H    0.087081
     9  H    0.090516
    10  H    0.085509
    11  H    0.078435
    12  H    0.095461
 Sum of Mulliken charges =  -0.00000

 Dipole moment (field-independent basis, Debye):
    X=              0.0124    Y=              0.0027    Z=              0.2118  Tot=              0.2121
 Quadrupole moment (field-independent basis, Debye-Ang):
   XX=            -30.8706   YY=            -32.1612   ZZ=            -38.7998
   XY=              0.4788   XZ=              0.0585   YZ=             -0.1744

 Normal termination of Gaussian 16 at Fri Nov 10 18:51:22 2023.
