 Gaussian 16, Revision B.01,
 Gaussian 16:  EM64L-G16RevB.01 20-Dec-2017

 ---------------------------------
 # TD=(NStates=1) B3LYP/6-31G(d,p)
 ---------------------------------

 -------
 ABSSPCT
 -------
 Symbolic Z-matrix:
 Charge =  0 Multiplicity = 1

                         Standard orientation:
 ---------------------------------------------------------------------
 Center     Atomic      Atomic             Coordinates (Angstroms)
 Number     Number       Type             X           Y           Z
 ---------------------------------------------------------------------
      1          6           0       -0.725602    1.171168    0.025354
      2          6           0       -1.429157   -0.050756   -0.032978
      3          6           0       -0.665863   -1.191706   -0.028342
      4          6           0        0.797498   -1.162583    0.073883
      5          6           0        1.415816    0.041051   -0.029338
      6          6           0        0.597183    1.231318   -0.031671
      7          1           0       -1.375469    2.019242    0.244902
      8          1           0        1.196111    2.303899    0.034976
      9          1           0        2.562597   -0.005489   -0.112753
     10          1           0        1.326992   -2.072870    0.036239
     11          1           0       -1.244481   -2.122239    0.089209
     12          1           0       -2.405000   -0.353489   -0.154027
 ---------------------------------------------------------------------

 SCF Done:  E(RB3LYP) =  -232.214138551     A.U. after   13 cycles

 Excitation energies and oscillator strengths:

 Excited State   1:      Singlet-A      5.5318 eV  224.13 nm  f=0.0011  <S**2>=0.000
      20 -> 22         0.32213
      20 -> 23         0.34629
      21 -> 22         0.40847
      21 -> 23        -0.33009
 This state for optimization and/or second-order correction.
 Total Energy, E(TD-HF/TD-DFT) =  -232.010849710
 Copying the excited state density for this state as the 1-particle RhoCI density.

 The electronic state is 1-A.
 Alpha  occ. eigenvalues --  -10.20174 -10.19746 -10.18840 -10.18781 -10.18647
 Alpha  occ. eigenvalues --  -10.18079  -0.85024  -0.74846  -0.73826  -0.60043
 Alpha  occ. eigenvalues --   -0.58994  -0.51561  -0.45861  -0.44209  -0.42299
 Alpha  occ. eigenvalues --   -0.39819  -0.36477  -0.33571  -0.32581  -0.25177
 Alpha  occ. eigenvalues --   -0.24562
 Alpha virt. eigenvalues --   -0.00082   0.00262   0.07559   0.12968   0.13629
 Alpha virt. eigenvalues --    0.15449   0.16665   0.17826   0.19988   0.28166
 Alpha virt. eigenvalues --    0.29665   0.30947   0.33334   0.46079   0.50536

 Mulliken charges:
               1
     1  C   -0.088119
     2  C   -0.061333
     3  C   -0.107382
     4  C   -0.073711
     5  C   -0.092669
     6  C   -0.082792
     7  H    0.088983
     8  H    0.075312
     9  H    0.089173
    10  H    0.085746
    11  H    0.077444
    12  H    0.089347
 Sum of Mulliken charges =  -0.00000

 Dipole moment (field-independent basis, Debye):
    X=             -0.0892    Y=             -0.2215    Z=              0.0740  Tot=              0.2500
 Quadrupole moment (field-independent basis, Debye-Ang):
   XX=            -31.1751   YY=            -32.3670   ZZ=            -38.5169
   XY=              0.0631   XZ=             -0.2280   YZ=              0.2984

 Normal termination of Gaussian 16 at Fri Nov 10 19:13:27 2023.
