 Gaussian 16, Revision B.01,
 Gaussian 16:  EM64L-G16RevB.01 20-Dec-2017

 ---------------------------------
 # TD=(NStates=1) B3LYP/6-31G(d,p)
 ---------------------------------

 -------
 ABSSPCT
 -------
 Symbolic Z-matrix:
 Charge =  0 Multiplicity = 1

                         Standard orientation:
 ---------------------------------------------------------------------
 Center     Atomic      Atomic             Coordinates (Angstroms)
 Number     Number       Type             X           Y           Z
 ---------------------------------------------------------------------
      1          6           0        0.232457    1.401365    0.036090
      2          6           0       -1.048326    0.888948    0.034528
      3          6           0       -1.399726   -0.487335   -0.074302
      4          6           0       -0.220579   -1.365862   -0.002893
      5          6           0        1.087844   -0.832239   -0.035638
      6          6           0        1.339712    0.450310   -0.035256
      7          1           0        0.358903    2.475025   -0.131414
      8          1           0        2.410743    0.755230    0.081677
      9          1           0        1.869479   -1.679679    0.186503
     10          1           0       -0.292589   -2.435646    0.135938
     11          1           0       -2.364192   -0.776770    0.075447
     12          1           0       -1.930647    1.330715    0.116672
 ---------------------------------------------------------------------

 SCF Done:  E(RB3LYP) =  -232.204547888     A.U. after   13 cycles

 Excitation energies and oscillator strengths:

 Excited State   1:      Singlet-A      5.3152 eV  233.26 nm  f=0.0050  <S**2>=0.000
      20 -> 22         0.50194
      21 -> 22         0.20631
      21 -> 23         0.44369
 This state for optimization and/or second-order correction.
 Total Energy, E(TD-HF/TD-DFT) =  -232.009217157
 Copying the excited state density for this state as the 1-particle RhoCI density.

 The electronic state is 1-A.
 Alpha  occ. eigenvalues --  -10.19642 -10.19545 -10.19242 -10.19026 -10.18740
 Alpha  occ. eigenvalues --  -10.17925  -0.84474  -0.75375  -0.72820  -0.61611
 Alpha  occ. eigenvalues --   -0.58504  -0.51677  -0.46562  -0.43876  -0.41862
 Alpha  occ. eigenvalues --   -0.41179  -0.35822  -0.34558  -0.31907  -0.25576
 Alpha  occ. eigenvalues --   -0.23614
 Alpha virt. eigenvalues --   -0.01810   0.01046   0.08562   0.13472   0.14516
 Alpha virt. eigenvalues --    0.15622   0.16404   0.18697   0.20771   0.28001
 Alpha virt. eigenvalues --    0.28678   0.30641   0.32481   0.46931   0.50316

 Mulliken charges:
               1
     1  C   -0.098128
     2  C   -0.063764
     3  C   -0.092756
     4  C   -0.096868
     5  C   -0.056409
     6  C   -0.098886
     7  H    0.093506
     8  H    0.088939
     9  H    0.077379
    10  H    0.081860
    11  H    0.090018
    12  H    0.075112
 Sum of Mulliken charges =  -0.00000

 Dipole moment (field-independent basis, Debye):
    X=             -0.1877    Y=             -0.0711    Z=              0.2728  Tot=              0.3387
 Quadrupole moment (field-independent basis, Debye-Ang):
   XX=            -31.1407   YY=            -32.1546   ZZ=            -38.4829
   XY=             -0.0203   XZ=             -0.0244   YZ=             -0.7098

 Normal termination of Gaussian 16 at Fri Nov 10 16:56:48 2023.
