 Gaussian 16, Revision B.01,
 Gaussian 16:  EM64L-G16RevB.01 20-Dec-2017

 ---------------------------------
 # TD=(NStates=1) B3LYP/6-31G(d,p)
 ---------------------------------

 -------
 ABSSPCT
 -------
 Symbolic Z-matrix:
 Charge =  0 Multiplicity = 1

                         Standard orientation:
 ---------------------------------------------------------------------
 Center     Atomic      Atomic             Coordinates (Angstroms)
 Number     Number       Type             X           Y           Z
 ---------------------------------------------------------------------
      1          6           0        1.413478   -0.411720   -0.021503
      2          6           0        0.252112   -1.380305   -0.021179
      3          6           0       -1.063007   -0.922242    0.021282
      4          6           0       -1.353569    0.407929    0.016632
      5          6           0       -0.293938    1.393511    0.068916
      6          6           0        1.043322    0.946160   -0.070949
      7          1           0        2.414073   -0.912819    0.333466
      8          1           0        1.958858    1.524547   -0.073692
      9          1           0       -0.628189    2.353772    0.012907
     10          1           0       -2.367507    0.633771   -0.151740
     11          1           0       -1.799655   -1.515888   -0.033034
     12          1           0        0.432022   -2.283381   -0.047102
 ---------------------------------------------------------------------

 SCF Done:  E(RB3LYP) =  -232.173571496     A.U. after   13 cycles

 Excitation energies and oscillator strengths:

 Excited State   1:      Singlet-A      5.1261 eV  241.87 nm  f=0.0001  <S**2>=0.000
      20 -> 22         0.50839
      21 -> 23        -0.48994
 This state for optimization and/or second-order correction.
 Total Energy, E(TD-HF/TD-DFT) =  -231.985192438
 Copying the excited state density for this state as the 1-particle RhoCI density.

 The electronic state is 1-A.
 Alpha  occ. eigenvalues --  -10.20462 -10.19576 -10.19194 -10.18423 -10.17703
 Alpha  occ. eigenvalues --  -10.16709  -0.83778  -0.74922  -0.73162  -0.62036
 Alpha  occ. eigenvalues --   -0.58879  -0.52346  -0.48123  -0.44313  -0.41904
 Alpha  occ. eigenvalues --   -0.40645  -0.35956  -0.34749  -0.32254  -0.25088
 Alpha  occ. eigenvalues --   -0.23150
 Alpha virt. eigenvalues --   -0.01846   0.00435   0.09701   0.13716   0.14751
 Alpha virt. eigenvalues --    0.16325   0.17396   0.18993   0.22002   0.27095
 Alpha virt. eigenvalues --    0.28073   0.31578   0.32724   0.47371   0.49985

 Mulliken charges:
               1
     1  C   -0.113709
     2  C   -0.059468
     3  C   -0.028704
     4  C   -0.100594
     5  C   -0.077101
     6  C   -0.094048
     7  H    0.099941
     8  H    0.087466
     9  H    0.086018
    10  H    0.085511
    11  H    0.059723
    12  H    0.054966
 Sum of Mulliken charges =  -0.00000

 Dipole moment (field-independent basis, Debye):
    X=             -0.1797    Y=             -0.1927    Z=              0.0339  Tot=              0.2657
 Quadrupole moment (field-independent basis, Debye-Ang):
   XX=            -30.8278   YY=            -31.8818   ZZ=            -38.3075
   XY=             -0.3900   XZ=              0.9271   YZ=             -0.3063

 Normal termination of Gaussian 16 at Fri Nov 10 19:15:13 2023.
