 Gaussian 16, Revision B.01,
 Gaussian 16:  EM64L-G16RevB.01 20-Dec-2017

 ---------------------------------
 # TD=(NStates=1) B3LYP/6-31G(d,p)
 ---------------------------------

 -------
 ABSSPCT
 -------
 Symbolic Z-matrix:
 Charge =  0 Multiplicity = 1

                         Standard orientation:
 ---------------------------------------------------------------------
 Center     Atomic      Atomic             Coordinates (Angstroms)
 Number     Number       Type             X           Y           Z
 ---------------------------------------------------------------------
      1          6           0        1.085200   -0.933910   -0.096035
      2          6           0        1.310204    0.401307    0.065267
      3          6           0        0.281223    1.340338    0.068434
      4          6           0       -1.037381    0.904992   -0.125144
      5          6           0       -1.367269   -0.463126    0.009421
      6          6           0       -0.278601   -1.293231    0.005871
      7          1           0        1.990709   -1.579172   -0.015366
      8          1           0       -0.565110   -2.309922    0.243348
      9          1           0       -2.523828   -0.709818    0.154690
     10          1           0       -1.705440    1.639970    0.041175
     11          1           0        0.535467    2.399564    0.049504
     12          1           0        2.307952    0.821158   -0.040228
 ---------------------------------------------------------------------

 SCF Done:  E(RB3LYP) =  -232.217859496     A.U. after   13 cycles

 Excitation energies and oscillator strengths:

 Excited State   1:      Singlet-A      5.4131 eV  229.04 nm  f=0.0053  <S**2>=0.000
      20 -> 22        -0.37142
      20 -> 23        -0.27869
      21 -> 22         0.40057
      21 -> 23        -0.35127
 This state for optimization and/or second-order correction.
 Total Energy, E(TD-HF/TD-DFT) =  -232.018930438
 Copying the excited state density for this state as the 1-particle RhoCI density.

 The electronic state is 1-A.
 Alpha  occ. eigenvalues --  -10.19978 -10.19313 -10.18937 -10.18389 -10.18185
 Alpha  occ. eigenvalues --  -10.17859  -0.85222  -0.74716  -0.73850  -0.60563
 Alpha  occ. eigenvalues --   -0.58927  -0.51777  -0.45506  -0.44236  -0.41781
 Alpha  occ. eigenvalues --   -0.40867  -0.36309  -0.33823  -0.32728  -0.25219
 Alpha  occ. eigenvalues --   -0.24288
 Alpha virt. eigenvalues --   -0.00808   0.00530   0.08047   0.12691   0.14414
 Alpha virt. eigenvalues --    0.15149   0.17436   0.18492   0.20595   0.29075
 Alpha virt. eigenvalues --    0.29300   0.32089   0.33303   0.45387   0.48933

 Mulliken charges:
               1
     1  C   -0.073693
     2  C   -0.082805
     3  C   -0.085462
     4  C   -0.083832
     5  C   -0.079335
     6  C   -0.106866
     7  H    0.095687
     8  H    0.078358
     9  H    0.095929
    10  H    0.078504
    11  H    0.085063
    12  H    0.078451
 Sum of Mulliken charges =  -0.00000

 Dipole moment (field-independent basis, Debye):
    X=              0.0126    Y=              0.1245    Z=              0.2532  Tot=              0.2825
 Quadrupole moment (field-independent basis, Debye-Ang):
   XX=            -31.1021   YY=            -32.4326   ZZ=            -38.4007
   XY=             -0.0237   XZ=             -0.5770   YZ=             -0.3708

 Normal termination of Gaussian 16 at Fri Nov 10 19:08:29 2023.
