 Gaussian 16, Revision B.01,
 Gaussian 16:  EM64L-G16RevB.01 20-Dec-2017

 ---------------------------------
 # TD=(NStates=1) B3LYP/6-31G(d,p)
 ---------------------------------

 -------
 ABSSPCT
 -------
 Symbolic Z-matrix:
 Charge =  0 Multiplicity = 1

                         Standard orientation:
 ---------------------------------------------------------------------
 Center     Atomic      Atomic             Coordinates (Angstroms)
 Number     Number       Type             X           Y           Z
 ---------------------------------------------------------------------
      1          6           0       -1.275886   -0.574637    0.113254
      2          6           0       -1.162720    0.787765   -0.076437
      3          6           0        0.097321    1.397826    0.015499
      4          6           0        1.332247    0.559433   -0.053709
      5          6           0        1.121249   -0.782094   -0.056244
      6          6           0       -0.120888   -1.399282    0.028844
      7          1           0       -2.316203   -1.076231   -0.031996
      8          1           0       -0.134465   -2.423850    0.014885
      9          1           0        1.924423   -1.488627   -0.145280
     10          1           0        2.415064    0.991583    0.366643
     11          1           0        0.179899    2.686179    0.187485
     12          1           0       -2.016656    1.376883   -0.218975
 ---------------------------------------------------------------------

 SCF Done:  E(RB3LYP) =  -232.193436337     A.U. after   13 cycles

 Excitation energies and oscillator strengths:

 Excited State   1:      Singlet-A      5.2041 eV  238.24 nm  f=0.0048  <S**2>=0.000
      20 -> 22         0.45119
      20 -> 23         0.14395
      21 -> 22        -0.27240
      21 -> 23         0.44822
 This state for optimization and/or second-order correction.
 Total Energy, E(TD-HF/TD-DFT) =  -232.002189274
 Copying the excited state density for this state as the 1-particle RhoCI density.

 The electronic state is 1-A.
 Alpha  occ. eigenvalues --  -10.21895 -10.20950 -10.20004 -10.18909 -10.18605
 Alpha  occ. eigenvalues --  -10.18473  -0.84649  -0.75011  -0.72705  -0.59843
 Alpha  occ. eigenvalues --   -0.58794  -0.50891  -0.44893  -0.43716  -0.41774
 Alpha  occ. eigenvalues --   -0.40335  -0.36027  -0.33870  -0.32441  -0.25479
 Alpha  occ. eigenvalues --   -0.23847
 Alpha virt. eigenvalues --   -0.01800   0.00110   0.06471   0.10940   0.12106
 Alpha virt. eigenvalues --    0.14680   0.15528   0.18156   0.19810   0.26999
 Alpha virt. eigenvalues --    0.29720   0.30841   0.33124   0.46520   0.49489

 Mulliken charges:
               1
     1  C   -0.096361
     2  C   -0.063272
     3  C   -0.099726
     4  C   -0.104520
     5  C   -0.065492
     6  C   -0.067693
     7  H    0.081283
     8  H    0.086104
     9  H    0.081739
    10  H    0.087567
    11  H    0.068348
    12  H    0.092023
 Sum of Mulliken charges =  -0.00000

 Dipole moment (field-independent basis, Debye):
    X=             -0.1365    Y=             -0.2889    Z=              0.0794  Tot=              0.3293
 Quadrupole moment (field-independent basis, Debye-Ang):
   XX=            -32.0683   YY=            -31.8777   ZZ=            -38.7127
   XY=             -0.4664   XZ=              1.0095   YZ=              0.5858

 Normal termination of Gaussian 16 at Fri Nov 10 18:31:28 2023.
