 Gaussian 16, Revision B.01,
 Gaussian 16:  EM64L-G16RevB.01 20-Dec-2017

 ---------------------------------
 # TD=(NStates=1) B3LYP/6-31G(d,p)
 ---------------------------------

 -------
 ABSSPCT
 -------
 Symbolic Z-matrix:
 Charge =  0 Multiplicity = 1

                         Standard orientation:
 ---------------------------------------------------------------------
 Center     Atomic      Atomic             Coordinates (Angstroms)
 Number     Number       Type             X           Y           Z
 ---------------------------------------------------------------------
      1          6           0       -1.211354   -0.733363    0.072174
      2          6           0       -1.242782    0.688516    0.020610
      3          6           0       -0.031604    1.380763   -0.012337
      4          6           0        1.178226    0.705494   -0.028123
      5          6           0        1.230558   -0.662984   -0.029534
      6          6           0        0.038604   -1.367608   -0.048351
      7          1           0       -2.170856   -1.356467   -0.002834
      8          1           0        0.155081   -2.490083   -0.113037
      9          1           0        2.269382   -1.228348    0.173518
     10          1           0        2.193600    1.376579    0.313691
     11          1           0       -0.137397    2.603058   -0.216161
     12          1           0       -2.079701    1.030353   -0.001810
 ---------------------------------------------------------------------

 SCF Done:  E(RB3LYP) =  -232.176952083     A.U. after   12 cycles

 Excitation energies and oscillator strengths:

 Excited State   1:      Singlet-A      5.4093 eV  229.21 nm  f=0.0003  <S**2>=0.000
      20 -> 22         0.42871
      20 -> 23         0.23810
      21 -> 22        -0.26212
      21 -> 23         0.43615
 This state for optimization and/or second-order correction.
 Total Energy, E(TD-HF/TD-DFT) =  -231.978163854
 Copying the excited state density for this state as the 1-particle RhoCI density.

 The electronic state is 1-A.
 Alpha  occ. eigenvalues --  -10.20487 -10.20311 -10.19981 -10.19886 -10.19453
 Alpha  occ. eigenvalues --  -10.17772  -0.85222  -0.75007  -0.73440  -0.60626
 Alpha  occ. eigenvalues --   -0.58872  -0.51018  -0.45637  -0.43733  -0.41315
 Alpha  occ. eigenvalues --   -0.39941  -0.36488  -0.34086  -0.32174  -0.25205
 Alpha  occ. eigenvalues --   -0.24704
 Alpha virt. eigenvalues --   -0.00606  -0.00282   0.06000   0.11288   0.12093
 Alpha virt. eigenvalues --    0.14297   0.16320   0.17216   0.19942   0.28935
 Alpha virt. eigenvalues --    0.29827   0.32020   0.32779   0.46051   0.51726

 Mulliken charges:
               1
     1  C   -0.101359
     2  C   -0.023406
     3  C   -0.083027
     4  C   -0.088506
     5  C   -0.075134
     6  C   -0.087475
     7  H    0.088958
     8  H    0.082561
     9  H    0.088137
    10  H    0.071076
    11  H    0.073940
    12  H    0.054235
 Sum of Mulliken charges =  -0.00000

 Dipole moment (field-independent basis, Debye):
    X=             -0.2676    Y=             -0.1617    Z=              0.0704  Tot=              0.3205
 Quadrupole moment (field-independent basis, Debye-Ang):
   XX=            -31.6795   YY=            -32.4094   ZZ=            -38.6523
   XY=             -0.4391   XZ=              0.8619   YZ=             -0.0455

 Normal termination of Gaussian 16 at Fri Nov 10 18:24:09 2023.
