 Gaussian 16, Revision B.01,
 Gaussian 16:  EM64L-G16RevB.01 20-Dec-2017

 ---------------------------------
 # TD=(NStates=1) B3LYP/6-31G(d,p)
 ---------------------------------

 -------
 ABSSPCT
 -------
 Symbolic Z-matrix:
 Charge =  0 Multiplicity = 1

                         Standard orientation:
 ---------------------------------------------------------------------
 Center     Atomic      Atomic             Coordinates (Angstroms)
 Number     Number       Type             X           Y           Z
 ---------------------------------------------------------------------
      1          6           0       -0.318775   -1.256357   -0.052829
      2          6           0        1.014113   -0.921205    0.040413
      3          6           0        1.388261    0.386608   -0.035919
      4          6           0        0.302601    1.345703    0.020694
      5          6           0       -1.048431    0.903502    0.043245
      6          6           0       -1.364344   -0.431356   -0.002711
      7          1           0       -0.629982   -2.358114    0.143171
      8          1           0       -2.418474   -0.670147   -0.054596
      9          1           0       -1.800180    1.687736   -0.125653
     10          1           0        0.616217    2.377725    0.005013
     11          1           0        2.525241    0.600045   -0.033504
     12          1           0        1.866631   -1.798619   -0.011789
 ---------------------------------------------------------------------

 SCF Done:  E(RB3LYP) =  -232.218494179     A.U. after   13 cycles

 Excitation energies and oscillator strengths:

 Excited State   1:      Singlet-A      5.5519 eV  223.32 nm  f=0.0019  <S**2>=0.000
      20 -> 22         0.45382
      20 -> 23         0.10494
      21 -> 22        -0.13845
      21 -> 23         0.51320
 This state for optimization and/or second-order correction.
 Total Energy, E(TD-HF/TD-DFT) =  -232.014466665
 Copying the excited state density for this state as the 1-particle RhoCI density.

 The electronic state is 1-A.
 Alpha  occ. eigenvalues --  -10.19873 -10.19651 -10.19599 -10.19013 -10.18658
 Alpha  occ. eigenvalues --  -10.18326  -0.85670  -0.75194  -0.73235  -0.59950
 Alpha  occ. eigenvalues --   -0.59096  -0.51348  -0.45895  -0.43231  -0.42069
 Alpha  occ. eigenvalues --   -0.39918  -0.36813  -0.34263  -0.31935  -0.25679
 Alpha  occ. eigenvalues --   -0.24399
 Alpha virt. eigenvalues --   -0.00225   0.00268   0.06889   0.12507   0.13400
 Alpha virt. eigenvalues --    0.16188   0.16792   0.17075   0.18698   0.29046
 Alpha virt. eigenvalues --    0.29466   0.32059   0.33488   0.45402   0.51631

 Mulliken charges:
               1
     1  C   -0.089879
     2  C   -0.071181
     3  C   -0.088447
     4  C   -0.102037
     5  C   -0.090595
     6  C   -0.059835
     7  H    0.068253
     8  H    0.095254
     9  H    0.083862
    10  H    0.088553
    11  H    0.091085
    12  H    0.074967
 Sum of Mulliken charges =  -0.00000

 Dipole moment (field-independent basis, Debye):
    X=             -0.0572    Y=              0.1558    Z=             -0.0631  Tot=              0.1776
 Quadrupole moment (field-independent basis, Debye-Ang):
   XX=            -30.9200   YY=            -32.8777   ZZ=            -38.6018
   XY=              0.1012   XZ=              0.1290   YZ=             -0.4030

 Normal termination of Gaussian 16 at Fri Nov 10 16:18:35 2023.
