 Gaussian 16, Revision B.01,
 Gaussian 16:  EM64L-G16RevB.01 20-Dec-2017

 ---------------------------------
 # TD=(NStates=1) B3LYP/6-31G(d,p)
 ---------------------------------

 -------
 ABSSPCT
 -------
 Symbolic Z-matrix:
 Charge =  0 Multiplicity = 1

                         Standard orientation:
 ---------------------------------------------------------------------
 Center     Atomic      Atomic             Coordinates (Angstroms)
 Number     Number       Type             X           Y           Z
 ---------------------------------------------------------------------
      1          6           0        0.040101   -1.350977   -0.027755
      2          6           0        1.209938   -0.710192   -0.057149
      3          6           0        1.171122    0.720459   -0.001094
      4          6           0       -0.011633    1.403041    0.066789
      5          6           0       -1.261105    0.640408   -0.040156
      6          6           0       -1.174265   -0.687840    0.007897
      7          1           0        0.070260   -2.395555    0.328719
      8          1           0       -2.135485   -1.436967    0.001692
      9          1           0       -2.243890    1.168235   -0.065635
     10          1           0       -0.025540    2.391184    0.036310
     11          1           0        2.195875    1.260887   -0.021836
     12          1           0        2.293838   -1.077176    0.029566
 ---------------------------------------------------------------------

 SCF Done:  E(RB3LYP) =  -232.212915467     A.U. after   12 cycles

 Excitation energies and oscillator strengths:

 Excited State   1:      Singlet-A      5.5777 eV  222.28 nm  f=0.0012  <S**2>=0.000
      20 -> 22         0.49611
      20 -> 23        -0.14231
      21 -> 22        -0.18139
      21 -> 23        -0.44745
 This state for optimization and/or second-order correction.
 Total Energy, E(TD-HF/TD-DFT) =  -232.007937550
 Copying the excited state density for this state as the 1-particle RhoCI density.

 The electronic state is 1-A.
 Alpha  occ. eigenvalues --  -10.19434 -10.19338 -10.19296 -10.19121 -10.18362
 Alpha  occ. eigenvalues --  -10.18301  -0.85503  -0.74513  -0.74229  -0.60686
 Alpha  occ. eigenvalues --   -0.58625  -0.51472  -0.45474  -0.44192  -0.41928
 Alpha  occ. eigenvalues --   -0.40510  -0.36623  -0.33623  -0.32560  -0.25183
 Alpha  occ. eigenvalues --   -0.24837
 Alpha virt. eigenvalues --   -0.00430   0.00711   0.07314   0.11579   0.14081
 Alpha virt. eigenvalues --    0.15706   0.17213   0.18146   0.19208   0.28110
 Alpha virt. eigenvalues --    0.29553   0.33145   0.34100   0.45823   0.51775

 Mulliken charges:
               1
     1  C   -0.094445
     2  C   -0.070483
     3  C   -0.091694
     4  C   -0.072713
     5  C   -0.095843
     6  C   -0.068953
     7  H    0.086199
     8  H    0.072614
     9  H    0.089454
    10  H    0.079481
    11  H    0.077258
    12  H    0.089126
 Sum of Mulliken charges =  -0.00000

 Dipole moment (field-independent basis, Debye):
    X=              0.0857    Y=              0.1744    Z=              0.1758  Tot=              0.2620
 Quadrupole moment (field-independent basis, Debye-Ang):
   XX=            -31.5999   YY=            -32.2391   ZZ=            -38.4343
   XY=             -0.1574   XZ=              0.1767   YZ=             -0.6607

 Normal termination of Gaussian 16 at Fri Nov 10 18:36:25 2023.
