 Gaussian 16, Revision B.01,
 Gaussian 16:  EM64L-G16RevB.01 20-Dec-2017

 ---------------------------------
 # TD=(NStates=1) B3LYP/6-31G(d,p)
 ---------------------------------

 -------
 ABSSPCT
 -------
 Symbolic Z-matrix:
 Charge =  0 Multiplicity = 1

                         Standard orientation:
 ---------------------------------------------------------------------
 Center     Atomic      Atomic             Coordinates (Angstroms)
 Number     Number       Type             X           Y           Z
 ---------------------------------------------------------------------
      1          6           0        0.537111   -1.232602    0.043283
      2          6           0       -0.829550   -1.122324   -0.053745
      3          6           0       -1.432275    0.110689   -0.032872
      4          6           0       -0.527835    1.207559   -0.003738
      5          6           0        0.828396    1.160697   -0.004233
      6          6           0        1.401039   -0.170503   -0.060293
      7          1           0        1.255739   -2.246442    0.104874
      8          1           0        2.439207   -0.439069    0.033985
      9          1           0        1.515723    2.145125    0.085449
     10          1           0       -0.949030    2.293087    0.222311
     11          1           0       -2.654826    0.439144   -0.017497
     12          1           0       -1.468129   -1.912942    0.240458
 ---------------------------------------------------------------------

 SCF Done:  E(RB3LYP) =  -232.189242287     A.U. after   13 cycles

 Excitation energies and oscillator strengths:

 Excited State   1:      Singlet-A      5.5137 eV  224.86 nm  f=0.0059  <S**2>=0.000
      20 -> 22         0.42685
      20 -> 23        -0.26322
      21 -> 22        -0.36256
      21 -> 23        -0.34131
 This state for optimization and/or second-order correction.
 Total Energy, E(TD-HF/TD-DFT) =  -231.986616129
 Copying the excited state density for this state as the 1-particle RhoCI density.

 The electronic state is 1-A.
 Alpha  occ. eigenvalues --  -10.21137 -10.20431 -10.19952 -10.19539 -10.19127
 Alpha  occ. eigenvalues --  -10.18921  -0.85468  -0.74546  -0.73820  -0.60214
 Alpha  occ. eigenvalues --   -0.57936  -0.50988  -0.44871  -0.43302  -0.41649
 Alpha  occ. eigenvalues --   -0.38925  -0.36823  -0.34236  -0.31448  -0.25370
 Alpha  occ. eigenvalues --   -0.24891
 Alpha virt. eigenvalues --   -0.01037   0.00797   0.04893   0.10361   0.11072
 Alpha virt. eigenvalues --    0.14592   0.16701   0.17262   0.18445   0.27834
 Alpha virt. eigenvalues --    0.30137   0.30761   0.33970   0.45864   0.50155

 Mulliken charges:
               1
     1  C   -0.068344
     2  C   -0.108420
     3  C   -0.077853
     4  C   -0.080792
     5  C   -0.079871
     6  C   -0.087135
     7  H    0.070123
     8  H    0.088831
     9  H    0.089112
    10  H    0.068486
    11  H    0.091620
    12  H    0.094244
 Sum of Mulliken charges =  -0.00000

 Dipole moment (field-independent basis, Debye):
    X=              0.0694    Y=              0.0858    Z=              0.3635  Tot=              0.3799
 Quadrupole moment (field-independent basis, Debye-Ang):
   XX=            -31.2208   YY=            -32.9775   ZZ=            -38.8211
   XY=             -0.2498   XZ=             -0.1578   YZ=             -0.0517

 Normal termination of Gaussian 16 at Fri Nov 10 19:24:46 2023.
