 Gaussian 16, Revision B.01,
 Gaussian 16:  EM64L-G16RevB.01 20-Dec-2017

 ---------------------------------
 # TD=(NStates=1) B3LYP/6-31G(d,p)
 ---------------------------------

 -------
 ABSSPCT
 -------
 Symbolic Z-matrix:
 Charge =  0 Multiplicity = 1

                         Standard orientation:
 ---------------------------------------------------------------------
 Center     Atomic      Atomic             Coordinates (Angstroms)
 Number     Number       Type             X           Y           Z
 ---------------------------------------------------------------------
      1          6           0        0.897600    1.007575   -0.034442
      2          6           0       -0.468818    1.263146   -0.058007
      3          6           0       -1.365968    0.288092    0.057679
      4          6           0       -0.924635   -1.002368    0.001950
      5          6           0        0.441448   -1.273645   -0.028064
      6          6           0        1.413250   -0.304239    0.026798
      7          1           0        1.675256    1.947403    0.122720
      8          1           0        2.530294   -0.454558    0.099841
      9          1           0        0.605816   -2.356208   -0.093550
     10          1           0       -1.662680   -1.870837    0.065129
     11          1           0       -2.368447    0.492870   -0.041310
     12          1           0       -0.737508    2.369969    0.051694
 ---------------------------------------------------------------------

 SCF Done:  E(RB3LYP) =  -232.223452073     A.U. after   12 cycles

 Excitation energies and oscillator strengths:

 Excited State   1:      Singlet-A      5.6375 eV  219.93 nm  f=0.0032  <S**2>=0.000
      20 -> 22        -0.39288
      20 -> 23         0.24524
      21 -> 22         0.33028
      21 -> 23         0.41945
 This state for optimization and/or second-order correction.
 Total Energy, E(TD-HF/TD-DFT) =  -232.016277379
 Copying the excited state density for this state as the 1-particle RhoCI density.

 The electronic state is 1-A.
 Alpha  occ. eigenvalues --  -10.19995 -10.19690 -10.18845 -10.18757 -10.18569
 Alpha  occ. eigenvalues --  -10.17445  -0.85997  -0.75335  -0.73532  -0.60360
 Alpha  occ. eigenvalues --   -0.58865  -0.51737  -0.44975  -0.44798  -0.41740
 Alpha  occ. eigenvalues --   -0.39876  -0.36958  -0.34094  -0.32575  -0.25726
 Alpha  occ. eigenvalues --   -0.24497
 Alpha virt. eigenvalues --   -0.00062   0.00681   0.07026   0.12351   0.13662
 Alpha virt. eigenvalues --    0.16090   0.17334   0.18032   0.19356   0.28459
 Alpha virt. eigenvalues --    0.31559   0.32109   0.33892   0.46054   0.51417

 Mulliken charges:
               1
     1  C   -0.098018
     2  C   -0.077515
     3  C   -0.063368
     4  C   -0.090315
     5  C   -0.086598
     6  C   -0.075843
     7  H    0.069154
     8  H    0.096330
     9  H    0.079348
    10  H    0.082910
    11  H    0.084053
    12  H    0.079860
 Sum of Mulliken charges =  -0.00000

 Dipole moment (field-independent basis, Debye):
    X=             -0.0779    Y=             -0.0925    Z=              0.1213  Tot=              0.1713
 Quadrupole moment (field-independent basis, Debye-Ang):
   XX=            -31.5369   YY=            -32.2856   ZZ=            -38.4645
   XY=              0.1847   XZ=              0.3018   YZ=              0.3150

 Normal termination of Gaussian 16 at Fri Nov 10 17:34:44 2023.
