 Gaussian 16, Revision B.01,
 Gaussian 16:  EM64L-G16RevB.01 20-Dec-2017

 ---------------------------------
 # TD=(NStates=1) B3LYP/6-31G(d,p)
 ---------------------------------

 -------
 ABSSPCT
 -------
 Symbolic Z-matrix:
 Charge =  0 Multiplicity = 1

                         Standard orientation:
 ---------------------------------------------------------------------
 Center     Atomic      Atomic             Coordinates (Angstroms)
 Number     Number       Type             X           Y           Z
 ---------------------------------------------------------------------
      1          6           0        0.793876    1.146529   -0.014739
      2          6           0        1.417030   -0.104266   -0.007831
      3          6           0        0.599758   -1.221603    0.013098
      4          6           0       -0.785797   -1.166223   -0.040733
      5          6           0       -1.394528    0.038563    0.009409
      6          6           0       -0.601198    1.240664    0.002341
      7          1           0        1.282804    2.009852   -0.041552
      8          1           0       -1.123439    2.183353    0.125531
      9          1           0       -2.539439    0.324636    0.072010
     10          1           0       -1.433121   -1.853156   -0.140790
     11          1           0        1.159179   -2.108677    0.283452
     12          1           0        2.479172   -0.157992   -0.067915
 ---------------------------------------------------------------------

 SCF Done:  E(RB3LYP) =  -232.208807117     A.U. after   12 cycles

 Excitation energies and oscillator strengths:

 Excited State   1:      Singlet-A      5.4645 eV  226.89 nm  f=0.0005  <S**2>=0.000
      20 -> 22        -0.47953
      21 -> 23         0.51335
 This state for optimization and/or second-order correction.
 Total Energy, E(TD-HF/TD-DFT) =  -232.007991835
 Copying the excited state density for this state as the 1-particle RhoCI density.

 The electronic state is 1-A.
 Alpha  occ. eigenvalues --  -10.19260 -10.18705 -10.18470 -10.18458 -10.17664
 Alpha  occ. eigenvalues --  -10.17333  -0.85044  -0.75392  -0.73566  -0.61349
 Alpha  occ. eigenvalues --   -0.59326  -0.52555  -0.46717  -0.44590  -0.42672
 Alpha  occ. eigenvalues --   -0.40598  -0.36661  -0.33952  -0.32728  -0.25196
 Alpha  occ. eigenvalues --   -0.24006
 Alpha virt. eigenvalues --   -0.00262   0.00513   0.09281   0.13586   0.15144
 Alpha virt. eigenvalues --    0.16757   0.18074   0.19083   0.20264   0.28699
 Alpha virt. eigenvalues --    0.30430   0.32212   0.32859   0.46703   0.52211

 Mulliken charges:
               1
     1  C   -0.065235
     2  C   -0.080570
     3  C   -0.103595
     4  C   -0.041698
     5  C   -0.097668
     6  C   -0.089515
     7  H    0.072256
     8  H    0.080906
     9  H    0.081097
    10  H    0.070386
    11  H    0.084585
    12  H    0.089050
 Sum of Mulliken charges =  -0.00000

 Dipole moment (field-independent basis, Debye):
    X=              0.0297    Y=              0.1215    Z=              0.1206  Tot=              0.1737
 Quadrupole moment (field-independent basis, Debye-Ang):
   XX=            -31.0360   YY=            -32.1443   ZZ=            -38.1743
   XY=             -0.1139   XZ=              0.0218   YZ=             -0.0627

 Normal termination of Gaussian 16 at Fri Nov 10 17:01:33 2023.
