 Gaussian 16, Revision B.01,
 Gaussian 16:  EM64L-G16RevB.01 20-Dec-2017

 ---------------------------------
 # TD=(NStates=1) B3LYP/6-31G(d,p)
 ---------------------------------

 -------
 ABSSPCT
 -------
 Symbolic Z-matrix:
 Charge =  0 Multiplicity = 1

                         Standard orientation:
 ---------------------------------------------------------------------
 Center     Atomic      Atomic             Coordinates (Angstroms)
 Number     Number       Type             X           Y           Z
 ---------------------------------------------------------------------
      1          6           0        0.761164   -1.100909    0.074605
      2          6           0        1.401933    0.018023   -0.034159
      3          6           0        0.690349    1.196670   -0.067877
      4          6           0       -0.718537    1.125369    0.025585
      5          6           0       -1.461949   -0.052315   -0.016441
      6          6           0       -0.657185   -1.217289   -0.004715
      7          1           0        1.464223   -1.894384   -0.000946
      8          1           0       -1.056671   -2.059071   -0.157808
      9          1           0       -2.684043   -0.165777   -0.012007
     10          1           0       -1.198327    2.054145    0.207753
     11          1           0        0.997928    2.331633    0.010137
     12          1           0        2.382241   -0.083841    0.090885
 ---------------------------------------------------------------------

 SCF Done:  E(RB3LYP) =  -232.182192502     A.U. after   14 cycles

 Excitation energies and oscillator strengths:

 Excited State   1:      Singlet-A      5.5119 eV  224.94 nm  f=0.0035  <S**2>=0.000
      20 -> 22         0.46841
      20 -> 23        -0.13115
      21 -> 22         0.22613
      21 -> 23         0.46017
 This state for optimization and/or second-order correction.
 Total Energy, E(TD-HF/TD-DFT) =  -231.979633319
 Copying the excited state density for this state as the 1-particle RhoCI density.

 The electronic state is 1-A.
 Alpha  occ. eigenvalues --  -10.20381 -10.19575 -10.18434 -10.17822 -10.17397
 Alpha  occ. eigenvalues --  -10.16827  -0.85730  -0.75844  -0.73610  -0.61339
 Alpha  occ. eigenvalues --   -0.58992  -0.53175  -0.45607  -0.43560  -0.42622
 Alpha  occ. eigenvalues --   -0.40828  -0.36305  -0.33876  -0.33425  -0.25657
 Alpha  occ. eigenvalues --   -0.23902
 Alpha virt. eigenvalues --   -0.00755   0.01091   0.07974   0.11925   0.13984
 Alpha virt. eigenvalues --    0.16114   0.18837   0.19399   0.21256   0.29040
 Alpha virt. eigenvalues --    0.30534   0.32011   0.33257   0.46265   0.51384

 Mulliken charges:
               1
     1  C   -0.071309
     2  C   -0.064720
     3  C   -0.082390
     4  C   -0.098034
     5  C   -0.080479
     6  C   -0.072534
     7  H    0.074980
     8  H    0.067083
     9  H    0.086996
    10  H    0.079072
    11  H    0.082677
    12  H    0.078658
 Sum of Mulliken charges =  -0.00000

 Dipole moment (field-independent basis, Debye):
    X=              0.0271    Y=             -0.0878    Z=              0.0646  Tot=              0.1123
 Quadrupole moment (field-independent basis, Debye-Ang):
   XX=            -31.3327   YY=            -32.0721   ZZ=            -38.2096
   XY=             -0.2322   XZ=              0.1306   YZ=              0.6813

 Normal termination of Gaussian 16 at Fri Nov 10 18:09:25 2023.
