 Gaussian 16, Revision B.01,
 Gaussian 16:  EM64L-G16RevB.01 20-Dec-2017

 ---------------------------------
 # TD=(NStates=1) B3LYP/6-31G(d,p)
 ---------------------------------

 -------
 ABSSPCT
 -------
 Symbolic Z-matrix:
 Charge =  0 Multiplicity = 1

                         Standard orientation:
 ---------------------------------------------------------------------
 Center     Atomic      Atomic             Coordinates (Angstroms)
 Number     Number       Type             X           Y           Z
 ---------------------------------------------------------------------
      1          6           0       -0.713012    1.170246   -0.016966
      2          6           0        0.682527    1.252605    0.077433
      3          6           0        1.412060    0.034803    0.036958
      4          6           0        0.775509   -1.182689   -0.062744
      5          6           0       -0.682654   -1.221493   -0.013438
      6          6           0       -1.479370   -0.083037    0.039789
      7          1           0       -1.367191    2.135044   -0.172146
      8          1           0       -2.577245    0.075009   -0.135873
      9          1           0       -1.162954   -2.246484    0.231850
     10          1           0        1.464564   -2.027059   -0.105037
     11          1           0        2.481162    0.111488   -0.042185
     12          1           0        1.191301    2.129395   -0.142801
 ---------------------------------------------------------------------

 SCF Done:  E(RB3LYP) =  -232.223230850     A.U. after   13 cycles

 Excitation energies and oscillator strengths:

 Excited State   1:      Singlet-A      5.2235 eV  237.36 nm  f=0.0015  <S**2>=0.000
      20 -> 22        -0.35665
      20 -> 23        -0.31228
      21 -> 22        -0.36533
      21 -> 23         0.37609
 This state for optimization and/or second-order correction.
 Total Energy, E(TD-HF/TD-DFT) =  -232.031272322
 Copying the excited state density for this state as the 1-particle RhoCI density.

 The electronic state is 1-A.
 Alpha  occ. eigenvalues --  -10.20689 -10.20288 -10.20222 -10.19486 -10.18864
 Alpha  occ. eigenvalues --  -10.18654  -0.83868  -0.74167  -0.73016  -0.59717
 Alpha  occ. eigenvalues --   -0.58945  -0.51081  -0.45571  -0.43874  -0.41823
 Alpha  occ. eigenvalues --   -0.40523  -0.35525  -0.34180  -0.32542  -0.24857
 Alpha  occ. eigenvalues --   -0.24137
 Alpha virt. eigenvalues --   -0.00920  -0.00472   0.08089   0.13151   0.13478
 Alpha virt. eigenvalues --    0.14691   0.15584   0.17554   0.19807   0.26548
 Alpha virt. eigenvalues --    0.28448   0.31425   0.32288   0.45859   0.48875

 Mulliken charges:
               1
     1  C   -0.103359
     2  C   -0.070907
     3  C   -0.088889
     4  C   -0.073644
     5  C   -0.112413
     6  C   -0.076764
     7  H    0.073089
     8  H    0.102777
     9  H    0.082870
    10  H    0.091369
    11  H    0.085305
    12  H    0.090565
 Sum of Mulliken charges =  -0.00000

 Dipole moment (field-independent basis, Debye):
    X=              0.1564    Y=              0.0771    Z=             -0.2354  Tot=              0.2930
 Quadrupole moment (field-independent basis, Debye-Ang):
   XX=            -30.9266   YY=            -32.5238   ZZ=            -38.7920
   XY=             -0.3479   XZ=             -0.0846   YZ=             -0.8028

 Normal termination of Gaussian 16 at Fri Nov 10 18:21:47 2023.
