 Gaussian 16, Revision B.01,
 Gaussian 16:  EM64L-G16RevB.01 20-Dec-2017

 ---------------------------------
 # TD=(NStates=1) B3LYP/6-31G(d,p)
 ---------------------------------

 -------
 ABSSPCT
 -------
 Symbolic Z-matrix:
 Charge =  0 Multiplicity = 1

                         Standard orientation:
 ---------------------------------------------------------------------
 Center     Atomic      Atomic             Coordinates (Angstroms)
 Number     Number       Type             X           Y           Z
 ---------------------------------------------------------------------
      1          6           0        0.994456   -0.962546   -0.074264
      2          6           0        1.319214    0.347019    0.072884
      3          6           0        0.404750    1.345275    0.007401
      4          6           0       -0.999533    1.005517   -0.020750
      5          6           0       -1.366931   -0.405716   -0.010763
      6          6           0       -0.353797   -1.336727    0.002188
      7          1           0        1.771690   -1.653149    0.014306
      8          1           0       -0.500723   -2.322571   -0.008382
      9          1           0       -2.537179   -0.657170    0.196405
     10          1           0       -1.783099    1.776534    0.022743
     11          1           0        0.683178    2.379849   -0.207877
     12          1           0        2.377173    0.519572    0.122630
 ---------------------------------------------------------------------

 SCF Done:  E(RB3LYP) =  -232.222641238     A.U. after   13 cycles

 Excitation energies and oscillator strengths:

 Excited State   1:      Singlet-A      5.4004 eV  229.58 nm  f=0.0001  <S**2>=0.000
      20 -> 22         0.50378
      21 -> 23         0.49566
 This state for optimization and/or second-order correction.
 Total Energy, E(TD-HF/TD-DFT) =  -232.024179799
 Copying the excited state density for this state as the 1-particle RhoCI density.

 The electronic state is 1-A.
 Alpha  occ. eigenvalues --  -10.20422 -10.19944 -10.19000 -10.17945 -10.17809
 Alpha  occ. eigenvalues --  -10.17735  -0.84891  -0.74558  -0.73621  -0.60539
 Alpha  occ. eigenvalues --   -0.59184  -0.51893  -0.46147  -0.44059  -0.41635
 Alpha  occ. eigenvalues --   -0.40747  -0.36379  -0.35102  -0.32305  -0.25147
 Alpha  occ. eigenvalues --   -0.24069
 Alpha virt. eigenvalues --   -0.00784   0.00489   0.08716   0.12625   0.14628
 Alpha virt. eigenvalues --    0.16232   0.17177   0.18033   0.20805   0.28095
 Alpha virt. eigenvalues --    0.29730   0.31768   0.33670   0.46625   0.51285

 Mulliken charges:
               1
     1  C   -0.075554
     2  C   -0.074145
     3  C   -0.082961
     4  C   -0.108808
     5  C   -0.086256
     6  C   -0.071835
     7  H    0.082095
     8  H    0.078247
     9  H    0.080363
    10  H    0.090606
    11  H    0.089975
    12  H    0.078274
 Sum of Mulliken charges =  -0.00000

 Dipole moment (field-independent basis, Debye):
    X=              0.1471    Y=             -0.0453    Z=              0.0812  Tot=              0.1740
 Quadrupole moment (field-independent basis, Debye-Ang):
   XX=            -31.5357   YY=            -31.7151   ZZ=            -38.4321
   XY=             -0.5398   XZ=             -0.2966   YZ=             -0.4483

 Normal termination of Gaussian 16 at Fri Nov 10 17:57:01 2023.
