 Gaussian 16, Revision B.01,
 Gaussian 16:  EM64L-G16RevB.01 20-Dec-2017

 ---------------------------------
 # TD=(NStates=1) B3LYP/6-31G(d,p)
 ---------------------------------

 -------
 ABSSPCT
 -------
 Symbolic Z-matrix:
 Charge =  0 Multiplicity = 1

                         Standard orientation:
 ---------------------------------------------------------------------
 Center     Atomic      Atomic             Coordinates (Angstroms)
 Number     Number       Type             X           Y           Z
 ---------------------------------------------------------------------
      1          6           0       -0.037650   -1.360396    0.046603
      2          6           0       -1.172662   -0.691417   -0.055415
      3          6           0       -1.207406    0.645185   -0.017969
      4          6           0        0.005905    1.380899   -0.014044
      5          6           0        1.221088    0.704067   -0.035433
      6          6           0        1.177695   -0.667085    0.009602
      7          1           0        0.209347   -2.358190    0.122562
      8          1           0        2.050539   -1.441222    0.016524
      9          1           0        2.232686    1.197940   -0.078954
     10          1           0       -0.004223    2.430457    0.248267
     11          1           0       -2.196342    1.261823    0.179572
     12          1           0       -2.213822   -1.158326   -0.088036
 ---------------------------------------------------------------------

 SCF Done:  E(RB3LYP) =  -232.216484410     A.U. after   13 cycles

 Excitation energies and oscillator strengths:

 Excited State   1:      Singlet-A      5.6572 eV  219.16 nm  f=0.0009  <S**2>=0.000
      20 -> 22         0.46630
      21 -> 22        -0.14233
      21 -> 23         0.50227
 This state for optimization and/or second-order correction.
 Total Energy, E(TD-HF/TD-DFT) =  -232.008586523
 Copying the excited state density for this state as the 1-particle RhoCI density.

 The electronic state is 1-A.
 Alpha  occ. eigenvalues --  -10.19279 -10.19168 -10.18963 -10.18914 -10.18402
 Alpha  occ. eigenvalues --  -10.17513  -0.86160  -0.75087  -0.74160  -0.60664
 Alpha  occ. eigenvalues --   -0.59014  -0.51913  -0.45359  -0.44466  -0.41828
 Alpha  occ. eigenvalues --   -0.40086  -0.37028  -0.34527  -0.31918  -0.25772
 Alpha  occ. eigenvalues --   -0.24403
 Alpha virt. eigenvalues --   -0.00124   0.00891   0.07401   0.11960   0.13637
 Alpha virt. eigenvalues --    0.16389   0.16895   0.18566   0.20325   0.28506
 Alpha virt. eigenvalues --    0.31346   0.31600   0.35487   0.45632   0.52155

 Mulliken charges:
               1
     1  C   -0.048302
     2  C   -0.076764
     3  C   -0.087201
     4  C   -0.100843
     5  C   -0.085445
     6  C   -0.095434
     7  H    0.080799
     8  H    0.076473
     9  H    0.087269
    10  H    0.088218
    11  H    0.084047
    12  H    0.077183
 Sum of Mulliken charges =  -0.00000

 Dipole moment (field-independent basis, Debye):
    X=              0.0630    Y=             -0.0599    Z=              0.2377  Tot=              0.2531
 Quadrupole moment (field-independent basis, Debye-Ang):
   XX=            -32.0873   YY=            -31.8954   ZZ=            -38.3127
   XY=             -0.5762   XZ=             -0.2682   YZ=              0.4482

 Normal termination of Gaussian 16 at Fri Nov 10 16:38:53 2023.
