 Gaussian 16, Revision B.01,
 Gaussian 16:  EM64L-G16RevB.01 20-Dec-2017

 ---------------------------------
 # TD=(NStates=1) B3LYP/6-31G(d,p)
 ---------------------------------

 -------
 ABSSPCT
 -------
 Symbolic Z-matrix:
 Charge =  0 Multiplicity = 1

                         Standard orientation:
 ---------------------------------------------------------------------
 Center     Atomic      Atomic             Coordinates (Angstroms)
 Number     Number       Type             X           Y           Z
 ---------------------------------------------------------------------
      1          6           0        0.564177   -1.250396    0.002536
      2          6           0       -0.837953   -1.077976   -0.038021
      3          6           0       -1.363812    0.093302    0.014043
      4          6           0       -0.593266    1.259753    0.003539
      5          6           0        0.840373    1.119711   -0.019375
      6          6           0        1.429181   -0.138721   -0.006774
      7          1           0        0.795682   -2.245448    0.076940
      8          1           0        2.529795   -0.353096    0.143339
      9          1           0        1.330485    2.231963   -0.097946
     10          1           0       -1.213315    2.201631    0.124895
     11          1           0       -2.489799    0.175570    0.029268
     12          1           0       -1.185054   -2.044655   -0.012180
 ---------------------------------------------------------------------

 SCF Done:  E(RB3LYP) =  -232.203596072     A.U. after   13 cycles

 Excitation energies and oscillator strengths:

 Excited State   1:      Singlet-A      5.5762 eV  222.35 nm  f=0.0001  <S**2>=0.000
      20 -> 22        -0.49299
      21 -> 23         0.50562
 This state for optimization and/or second-order correction.
 Total Energy, E(TD-HF/TD-DFT) =  -231.998674952
 Copying the excited state density for this state as the 1-particle RhoCI density.

 The electronic state is 1-A.
 Alpha  occ. eigenvalues --  -10.20908 -10.19970 -10.19639 -10.18114 -10.18079
 Alpha  occ. eigenvalues --  -10.16863  -0.85450  -0.74963  -0.73806  -0.60653
 Alpha  occ. eigenvalues --   -0.59331  -0.51611  -0.45904  -0.44390  -0.41600
 Alpha  occ. eigenvalues --   -0.39721  -0.36672  -0.35183  -0.31223  -0.25913
 Alpha  occ. eigenvalues --   -0.23979
 Alpha virt. eigenvalues --   -0.00727   0.01070   0.07551   0.12604   0.13871
 Alpha virt. eigenvalues --    0.14539   0.16645   0.17626   0.21950   0.27812
 Alpha virt. eigenvalues --    0.29362   0.31312   0.35565   0.45381   0.51848

 Mulliken charges:
               1
     1  C   -0.095612
     2  C   -0.030722
     3  C   -0.089345
     4  C   -0.089894
     5  C   -0.103485
     6  C   -0.087499
     7  H    0.079240
     8  H    0.091650
     9  H    0.082610
    10  H    0.092453
    11  H    0.074541
    12  H    0.076063
 Sum of Mulliken charges =  -0.00000

 Dipole moment (field-independent basis, Debye):
    X=             -0.1038    Y=             -0.2327    Z=              0.1646  Tot=              0.3034
 Quadrupole moment (field-independent basis, Debye-Ang):
   XX=            -32.5603   YY=            -31.0730   ZZ=            -38.5000
   XY=             -0.5628   XZ=              0.0887   YZ=             -0.1275

 Normal termination of Gaussian 16 at Fri Nov 10 19:34:00 2023.
