 Gaussian 16, Revision B.01,
 Gaussian 16:  EM64L-G16RevB.01 20-Dec-2017

 ---------------------------------
 # TD=(NStates=1) B3LYP/6-31G(d,p)
 ---------------------------------

 -------
 ABSSPCT
 -------
 Symbolic Z-matrix:
 Charge =  0 Multiplicity = 1

                         Standard orientation:
 ---------------------------------------------------------------------
 Center     Atomic      Atomic             Coordinates (Angstroms)
 Number     Number       Type             X           Y           Z
 ---------------------------------------------------------------------
      1          6           0        1.433561   -0.240257    0.007703
      2          6           0        0.484302   -1.192511   -0.000077
      3          6           0       -0.870354   -1.143023    0.112483
      4          6           0       -1.419282    0.187369   -0.073391
      5          6           0       -0.542237    1.265230   -0.014784
      6          6           0        0.935012    1.140461   -0.003367
      7          1           0        2.490966   -0.509679   -0.236492
      8          1           0        1.544002    1.973545    0.027580
      9          1           0       -1.142082    2.371099    0.345934
     10          1           0       -2.525943    0.339306   -0.256786
     11          1           0       -1.484262   -1.981266   -0.085369
     12          1           0        0.991303   -2.296625    0.033732
 ---------------------------------------------------------------------

 SCF Done:  E(RB3LYP) =  -232.185862315     A.U. after   14 cycles

 Excitation energies and oscillator strengths:

 Excited State   1:      Singlet-A      5.0748 eV  244.32 nm  f=0.0081  <S**2>=0.000
      20 -> 22         0.50377
      20 -> 23        -0.17378
      21 -> 22         0.27293
      21 -> 23         0.37312
 This state for optimization and/or second-order correction.
 Total Energy, E(TD-HF/TD-DFT) =  -231.999368156
 Copying the excited state density for this state as the 1-particle RhoCI density.

 The electronic state is 1-A.
 Alpha  occ. eigenvalues --  -10.21529 -10.20645 -10.20285 -10.19847 -10.19407
 Alpha  occ. eigenvalues --  -10.19181  -0.84499  -0.74220  -0.73119  -0.61400
 Alpha  occ. eigenvalues --   -0.57167  -0.50566  -0.46233  -0.44080  -0.41899
 Alpha  occ. eigenvalues --   -0.38294  -0.36437  -0.35605  -0.30669  -0.24847
 Alpha  occ. eigenvalues --   -0.24308
 Alpha virt. eigenvalues --   -0.02332  -0.00034   0.06883   0.09704   0.13599
 Alpha virt. eigenvalues --    0.14564   0.16215   0.17217   0.18355   0.27411
 Alpha virt. eigenvalues --    0.28013   0.29589   0.32588   0.47113   0.47714

 Mulliken charges:
               1
     1  C   -0.079770
     2  C   -0.065469
     3  C   -0.079639
     4  C   -0.095645
     5  C   -0.080976
     6  C   -0.102134
     7  H    0.098311
     8  H    0.096871
     9  H    0.061389
    10  H    0.095336
    11  H    0.097263
    12  H    0.054464
 Sum of Mulliken charges =  -0.00000

 Dipole moment (field-independent basis, Debye):
    X=              0.0135    Y=             -0.0765    Z=             -0.1582  Tot=              0.1762
 Quadrupole moment (field-independent basis, Debye-Ang):
   XX=            -31.0541   YY=            -33.0452   ZZ=            -38.8186
   XY=              0.5766   XZ=             -0.0716   YZ=              0.7648

 Normal termination of Gaussian 16 at Fri Nov 10 16:53:08 2023.
