 Gaussian 16, Revision B.01,
 Gaussian 16:  EM64L-G16RevB.01 20-Dec-2017

 ---------------------------------
 # TD=(NStates=1) B3LYP/6-31G(d,p)
 ---------------------------------

 -------
 ABSSPCT
 -------
 Symbolic Z-matrix:
 Charge =  0 Multiplicity = 1

                         Standard orientation:
 ---------------------------------------------------------------------
 Center     Atomic      Atomic             Coordinates (Angstroms)
 Number     Number       Type             X           Y           Z
 ---------------------------------------------------------------------
      1          6           0        1.412590    0.040529    0.000252
      2          6           0        0.643602    1.174746    0.014680
      3          6           0       -0.729199    1.213577   -0.026456
      4          6           0       -1.417057   -0.028289    0.001980
      5          6           0       -0.661229   -1.248647   -0.011029
      6          6           0        0.745355   -1.145950   -0.081803
      7          1           0        2.431538    0.195364    0.138637
      8          1           0        1.317499   -2.052499    0.028470
      9          1           0       -1.079859   -2.197427    0.249932
     10          1           0       -2.447345   -0.294174    0.158339
     11          1           0       -1.458605    2.193813   -0.145612
     12          1           0        1.272397    2.119122    0.184485
 ---------------------------------------------------------------------

 SCF Done:  E(RB3LYP) =  -232.220443491     A.U. after   13 cycles

 Excitation energies and oscillator strengths:

 Excited State   1:      Singlet-A      5.4331 eV  228.20 nm  f=0.0007  <S**2>=0.000
      20 -> 23        -0.47288
      21 -> 22         0.51945
 This state for optimization and/or second-order correction.
 Total Energy, E(TD-HF/TD-DFT) =  -232.020781917
 Copying the excited state density for this state as the 1-particle RhoCI density.

 The electronic state is 1-A.
 Alpha  occ. eigenvalues --  -10.20669 -10.19393 -10.19035 -10.18841 -10.18459
 Alpha  occ. eigenvalues --  -10.17930  -0.85026  -0.74483  -0.73750  -0.60361
 Alpha  occ. eigenvalues --   -0.59258  -0.51447  -0.46247  -0.43858  -0.41740
 Alpha  occ. eigenvalues --   -0.40464  -0.36307  -0.34487  -0.32090  -0.24921
 Alpha  occ. eigenvalues --   -0.24525
 Alpha virt. eigenvalues --   -0.00202  -0.00030   0.07783   0.12669   0.14003
 Alpha virt. eigenvalues --    0.15035   0.16166   0.19062   0.20291   0.28827
 Alpha virt. eigenvalues --    0.29858   0.30726   0.33976   0.45615   0.51768

 Mulliken charges:
               1
     1  C   -0.044725
     2  C   -0.095266
     3  C   -0.084540
     4  C   -0.096014
     5  C   -0.089548
     6  C   -0.098082
     7  H    0.088261
     8  H    0.075812
     9  H    0.091578
    10  H    0.091736
    11  H    0.085447
    12  H    0.075341
 Sum of Mulliken charges =  -0.00000

 Dipole moment (field-independent basis, Debye):
    X=              0.0786    Y=             -0.1675    Z=              0.3766  Tot=              0.4196
 Quadrupole moment (field-independent basis, Debye-Ang):
   XX=            -31.3120   YY=            -32.3184   ZZ=            -38.4688
   XY=              0.4675   XZ=              0.1175   YZ=             -0.5420

 Normal termination of Gaussian 16 at Fri Nov 10 18:37:27 2023.
