 Gaussian 16, Revision B.01,
 Gaussian 16:  EM64L-G16RevB.01 20-Dec-2017

 ---------------------------------
 # TD=(NStates=1) B3LYP/6-31G(d,p)
 ---------------------------------

 -------
 ABSSPCT
 -------
 Symbolic Z-matrix:
 Charge =  0 Multiplicity = 1

                         Standard orientation:
 ---------------------------------------------------------------------
 Center     Atomic      Atomic             Coordinates (Angstroms)
 Number     Number       Type             X           Y           Z
 ---------------------------------------------------------------------
      1          6           0       -1.241479   -0.560544   -0.033246
      2          6           0       -1.183637    0.766522    0.004879
      3          6           0        0.110854    1.373700    0.024793
      4          6           0        1.284881    0.603084   -0.027942
      5          6           0        1.136862   -0.776156   -0.026637
      6          6           0       -0.116953   -1.446544   -0.031269
      7          1           0       -2.263598   -1.026518    0.065190
      8          1           0       -0.188239   -2.450701    0.083719
      9          1           0        2.241664   -1.381241    0.277459
     10          1           0        2.246426    1.164549    0.036068
     11          1           0        0.245310    2.603531   -0.092773
     12          1           0       -2.224727    1.330017    0.166867
 ---------------------------------------------------------------------

 SCF Done:  E(RB3LYP) =  -232.197778847     A.U. after   13 cycles

 Excitation energies and oscillator strengths:

 Excited State   1:      Singlet-A      5.4462 eV  227.65 nm  f=0.0009  <S**2>=0.000
      20 -> 22         0.53090
      21 -> 23        -0.46600
 This state for optimization and/or second-order correction.
 Total Energy, E(TD-HF/TD-DFT) =  -231.997635072
 Copying the excited state density for this state as the 1-particle RhoCI density.

 The electronic state is 1-A.
 Alpha  occ. eigenvalues --  -10.21167 -10.20990 -10.19901 -10.19591 -10.19447
 Alpha  occ. eigenvalues --  -10.19264  -0.84978  -0.74681  -0.73329  -0.60204
 Alpha  occ. eigenvalues --   -0.58038  -0.51093  -0.44487  -0.43741  -0.41761
 Alpha  occ. eigenvalues --   -0.40200  -0.36601  -0.33735  -0.31735  -0.25654
 Alpha  occ. eigenvalues --   -0.24412
 Alpha virt. eigenvalues --   -0.01400   0.00651   0.05848   0.09782   0.12207
 Alpha virt. eigenvalues --    0.15214   0.16159   0.16710   0.18615   0.27916
 Alpha virt. eigenvalues --    0.28233   0.31961   0.33418   0.45338   0.49319

 Mulliken charges:
               1
     1  C   -0.088010
     2  C   -0.069179
     3  C   -0.104967
     4  C   -0.063815
     5  C   -0.093725
     6  C   -0.067842
     7  H    0.079260
     8  H    0.093278
     9  H    0.056396
    10  H    0.098305
    11  H    0.071035
    12  H    0.089264
 Sum of Mulliken charges =  -0.00000

 Dipole moment (field-independent basis, Debye):
    X=             -0.1432    Y=             -0.0277    Z=              0.2913  Tot=              0.3257
 Quadrupole moment (field-independent basis, Debye-Ang):
   XX=            -31.9164   YY=            -32.2247   ZZ=            -38.8984
   XY=              0.7124   XZ=              0.0296   YZ=             -0.4690

 Normal termination of Gaussian 16 at Fri Nov 10 16:23:02 2023.
