 Gaussian 16, Revision B.01,
 Gaussian 16:  EM64L-G16RevB.01 20-Dec-2017

 ---------------------------------
 # TD=(NStates=1) B3LYP/6-31G(d,p)
 ---------------------------------

 -------
 ABSSPCT
 -------
 Symbolic Z-matrix:
 Charge =  0 Multiplicity = 1

                         Standard orientation:
 ---------------------------------------------------------------------
 Center     Atomic      Atomic             Coordinates (Angstroms)
 Number     Number       Type             X           Y           Z
 ---------------------------------------------------------------------
      1          6           0       -0.914581   -0.956917   -0.005743
      2          6           0        0.471506   -1.302236    0.054449
      3          6           0        1.344127   -0.280256   -0.061285
      4          6           0        0.980347    0.996236   -0.003834
      5          6           0       -0.427282    1.276393    0.011303
      6          6           0       -1.418389    0.272542   -0.017953
      7          1           0       -1.473290   -1.769830   -0.016798
      8          1           0       -2.592984    0.328418   -0.112717
      9          1           0       -0.757994    2.354037    0.185612
     10          1           0        1.577700    1.798281    0.008033
     11          1           0        2.496876   -0.465963   -0.010870
     12          1           0        0.535321   -2.279515    0.085124
 ---------------------------------------------------------------------

 SCF Done:  E(RB3LYP) =  -232.193621932     A.U. after   14 cycles

 Excitation energies and oscillator strengths:

 Excited State   1:      Singlet-A      5.6542 eV  219.28 nm  f=0.0015  <S**2>=0.000
      20 -> 22         0.47845
      21 -> 22        -0.11526
      21 -> 23         0.50413
 This state for optimization and/or second-order correction.
 Total Energy, E(TD-HF/TD-DFT) =  -231.985832978
 Copying the excited state density for this state as the 1-particle RhoCI density.

 The electronic state is 1-A.
 Alpha  occ. eigenvalues --  -10.19742 -10.19189 -10.18756 -10.17786 -10.17299
 Alpha  occ. eigenvalues --  -10.16759  -0.85873  -0.75827  -0.73920  -0.60886
 Alpha  occ. eigenvalues --   -0.60240  -0.52052  -0.46341  -0.45259  -0.42243
 Alpha  occ. eigenvalues --   -0.40474  -0.36878  -0.34698  -0.31717  -0.26185
 Alpha  occ. eigenvalues --   -0.23785
 Alpha virt. eigenvalues --   -0.00626   0.01547   0.08747   0.12136   0.15201
 Alpha virt. eigenvalues --    0.16426   0.16762   0.19241   0.22302   0.28396
 Alpha virt. eigenvalues --    0.29603   0.32823   0.35508   0.45054   0.51410

 Mulliken charges:
               1
     1  C   -0.081052
     2  C   -0.037013
     3  C   -0.098151
     4  C   -0.036356
     5  C   -0.134825
     6  C   -0.062193
     7  H    0.063989
     8  H    0.089689
     9  H    0.075388
    10  H    0.082676
    11  H    0.066008
    12  H    0.071839
 Sum of Mulliken charges =  -0.00000

 Dipole moment (field-independent basis, Debye):
    X=             -0.1333    Y=             -0.1412    Z=              0.0734  Tot=              0.2076
 Quadrupole moment (field-independent basis, Debye-Ang):
   XX=            -31.9312   YY=            -31.5700   ZZ=            -38.1527
   XY=              0.8868   XZ=              0.1972   YZ=              0.1773

 Normal termination of Gaussian 16 at Fri Nov 10 16:06:43 2023.
