 Gaussian 16, Revision B.01,
 Gaussian 16:  EM64L-G16RevB.01 20-Dec-2017

 ---------------------------------
 # TD=(NStates=1) B3LYP/6-31G(d,p)
 ---------------------------------

 -------
 ABSSPCT
 -------
 Symbolic Z-matrix:
 Charge =  0 Multiplicity = 1

                         Standard orientation:
 ---------------------------------------------------------------------
 Center     Atomic      Atomic             Coordinates (Angstroms)
 Number     Number       Type             X           Y           Z
 ---------------------------------------------------------------------
      1          6           0        1.059556    0.964597    0.042390
      2          6           0       -0.292734    1.332778   -0.088143
      3          6           0       -1.376238    0.392845    0.006889
      4          6           0       -1.032211   -0.936879    0.006927
      5          6           0        0.268118   -1.300823   -0.029993
      6          6           0        1.401550   -0.501076   -0.017472
      7          1           0        1.829370    1.724679    0.113384
      8          1           0        2.373888   -0.804909    0.114151
      9          1           0        0.457833   -2.254073   -0.028917
     10          1           0       -1.857092   -1.558453    0.094433
     11          1           0       -2.477534    0.794210    0.165634
     12          1           0       -0.494710    2.389898    0.017727
 ---------------------------------------------------------------------

 SCF Done:  E(RB3LYP) =  -232.212369129     A.U. after   14 cycles

 Excitation energies and oscillator strengths:

 Excited State   1:      Singlet-A      5.3455 eV  231.94 nm  f=0.0024  <S**2>=0.000
      20 -> 22         0.54104
      21 -> 23        -0.45484
 This state for optimization and/or second-order correction.
 Total Energy, E(TD-HF/TD-DFT) =  -232.015924570
 Copying the excited state density for this state as the 1-particle RhoCI density.

 The electronic state is 1-A.
 Alpha  occ. eigenvalues --  -10.19830 -10.19715 -10.19233 -10.18857 -10.17731
 Alpha  occ. eigenvalues --  -10.17206  -0.84446  -0.74135  -0.73819  -0.60370
 Alpha  occ. eigenvalues --   -0.59626  -0.52191  -0.46616  -0.44512  -0.41510
 Alpha  occ. eigenvalues --   -0.40930  -0.35925  -0.35115  -0.32046  -0.24703
 Alpha  occ. eigenvalues --   -0.24196
 Alpha virt. eigenvalues --   -0.01022   0.00673   0.09147   0.13893   0.15059
 Alpha virt. eigenvalues --    0.15690   0.18057   0.18355   0.20183   0.26739
 Alpha virt. eigenvalues --    0.30428   0.30676   0.32837   0.47193   0.50731

 Mulliken charges:
               1
     1  C   -0.105127
     2  C   -0.084410
     3  C   -0.098432
     4  C   -0.055451
     5  C   -0.069783
     6  C   -0.083889
     7  H    0.087757
     8  H    0.091572
     9  H    0.068055
    10  H    0.083441
    11  H    0.087151
    12  H    0.079115
 Sum of Mulliken charges =  -0.00000

 Dipole moment (field-independent basis, Debye):
    X=              0.0358    Y=             -0.0860    Z=              0.3016  Tot=              0.3157
 Quadrupole moment (field-independent basis, Debye-Ang):
   XX=            -30.7107   YY=            -32.0668   ZZ=            -38.4572
   XY=              0.0048   XZ=             -0.0544   YZ=              0.1768

 Normal termination of Gaussian 16 at Fri Nov 10 18:36:40 2023.
