 Gaussian 16, Revision B.01,
 Gaussian 16:  EM64L-G16RevB.01 20-Dec-2017

 ---------------------------------
 # TD=(NStates=1) B3LYP/6-31G(d,p)
 ---------------------------------

 -------
 ABSSPCT
 -------
 Symbolic Z-matrix:
 Charge =  0 Multiplicity = 1

                         Standard orientation:
 ---------------------------------------------------------------------
 Center     Atomic      Atomic             Coordinates (Angstroms)
 Number     Number       Type             X           Y           Z
 ---------------------------------------------------------------------
      1          6           0        0.523638   -1.281822   -0.041596
      2          6           0       -0.863367   -1.091268    0.027890
      3          6           0       -1.422824    0.133220    0.040118
      4          6           0       -0.534844    1.315809   -0.026411
      5          6           0        0.906093    1.081569    0.012773
      6          6           0        1.398285   -0.199935   -0.005913
      7          1           0        0.963721   -2.361643   -0.246954
      8          1           0        2.405564   -0.274744    0.291480
      9          1           0        1.681324    1.944314    0.013814
     10          1           0       -0.945242    2.344925   -0.190809
     11          1           0       -2.689940    0.504531    0.016754
     12          1           0       -1.457311   -1.902820    0.074546
 ---------------------------------------------------------------------

 SCF Done:  E(RB3LYP) =  -232.196803095     A.U. after   13 cycles

 Excitation energies and oscillator strengths:

 Excited State   1:      Singlet-A      5.3141 eV  233.31 nm  f=0.0004  <S**2>=0.000
      20 -> 22         0.51180
      21 -> 23         0.48197
 This state for optimization and/or second-order correction.
 Total Energy, E(TD-HF/TD-DFT) =  -232.001513022
 Copying the excited state density for this state as the 1-particle RhoCI density.

 The electronic state is 1-A.
 Alpha  occ. eigenvalues --  -10.21522 -10.20547 -10.20106 -10.19943 -10.18343
 Alpha  occ. eigenvalues --  -10.18325  -0.84553  -0.75053  -0.72414  -0.60134
 Alpha  occ. eigenvalues --   -0.58454  -0.51231  -0.44564  -0.43930  -0.41906
 Alpha  occ. eigenvalues --   -0.40080  -0.36487  -0.33528  -0.32407  -0.25560
 Alpha  occ. eigenvalues --   -0.23716
 Alpha virt. eigenvalues --   -0.01558   0.00592   0.05807   0.10879   0.12937
 Alpha virt. eigenvalues --    0.14960   0.16009   0.18214   0.18498   0.27018
 Alpha virt. eigenvalues --    0.29059   0.31346   0.32917   0.46902   0.50725

 Mulliken charges:
               1
     1  C   -0.095862
     2  C   -0.069167
     3  C   -0.076191
     4  C   -0.104920
     5  C   -0.089585
     6  C   -0.075860
     7  H    0.083951
     8  H    0.093256
     9  H    0.083548
    10  H    0.092187
    11  H    0.072377
    12  H    0.086268
 Sum of Mulliken charges =  -0.00000

 Dipole moment (field-independent basis, Debye):
    X=              0.0835    Y=             -0.0126    Z=             -0.0114  Tot=              0.0853
 Quadrupole moment (field-independent basis, Debye-Ang):
   XX=            -31.7844   YY=            -31.8507   ZZ=            -38.7997
   XY=             -0.0407   XZ=              0.4675   YZ=             -0.0954

 Normal termination of Gaussian 16 at Fri Nov 10 17:46:28 2023.
