 Gaussian 16, Revision B.01,
 Gaussian 16:  EM64L-G16RevB.01 20-Dec-2017

 ---------------------------------
 # TD=(NStates=1) B3LYP/6-31G(d,p)
 ---------------------------------

 -------
 ABSSPCT
 -------
 Symbolic Z-matrix:
 Charge =  0 Multiplicity = 1

                         Standard orientation:
 ---------------------------------------------------------------------
 Center     Atomic      Atomic             Coordinates (Angstroms)
 Number     Number       Type             X           Y           Z
 ---------------------------------------------------------------------
      1          6           0        1.015332   -0.946926   -0.019087
      2          6           0       -0.262024   -1.347242    0.031939
      3          6           0       -1.375497   -0.465161   -0.022319
      4          6           0       -1.009211    0.961337    0.014931
      5          6           0        0.255000    1.378545   -0.004993
      6          6           0        1.376562    0.433795   -0.026512
      7          1           0        1.860815   -1.810795   -0.088475
      8          1           0        2.405975    0.755841    0.120889
      9          1           0        0.493609    2.442742    0.082903
     10          1           0       -1.748353    1.578668   -0.037215
     11          1           0       -2.440529   -0.695133   -0.059867
     12          1           0       -0.572484   -2.357418    0.138006
 ---------------------------------------------------------------------

 SCF Done:  E(RB3LYP) =  -232.214125767     A.U. after   13 cycles

 Excitation energies and oscillator strengths:

 Excited State   1:      Singlet-A      5.3918 eV  229.95 nm  f=0.0019  <S**2>=0.000
      20 -> 22         0.53928
      21 -> 23         0.45655
 This state for optimization and/or second-order correction.
 Total Energy, E(TD-HF/TD-DFT) =  -232.015982196
 Copying the excited state density for this state as the 1-particle RhoCI density.

 The electronic state is 1-A.
 Alpha  occ. eigenvalues --  -10.19952 -10.19906 -10.19666 -10.18887 -10.18420
 Alpha  occ. eigenvalues --  -10.17374  -0.84266  -0.75098  -0.72780  -0.60724
 Alpha  occ. eigenvalues --   -0.58912  -0.51757  -0.46515  -0.44029  -0.41298
 Alpha  occ. eigenvalues --   -0.40866  -0.36086  -0.35660  -0.31385  -0.25653
 Alpha  occ. eigenvalues --   -0.23462
 Alpha virt. eigenvalues --   -0.01766   0.01559   0.08390   0.13668   0.14599
 Alpha virt. eigenvalues --    0.15286   0.17150   0.17796   0.20302   0.27096
 Alpha virt. eigenvalues --    0.29006   0.30615   0.34026   0.46946   0.51785

 Mulliken charges:
               1
     1  C   -0.078191
     2  C   -0.073801
     3  C   -0.100785
     4  C   -0.057041
     5  C   -0.083928
     6  C   -0.107896
     7  H    0.076098
     8  H    0.095836
     9  H    0.083196
    10  H    0.067790
    11  H    0.094969
    12  H    0.083752
 Sum of Mulliken charges =  -0.00000

 Dipole moment (field-independent basis, Debye):
    X=             -0.1899    Y=              0.0735    Z=              0.1042  Tot=              0.2287
 Quadrupole moment (field-independent basis, Debye-Ang):
   XX=            -30.9675   YY=            -31.9470   ZZ=            -38.5880
   XY=              0.2614   XZ=              0.2914   YZ=              0.0972

 Normal termination of Gaussian 16 at Fri Nov 10 19:03:17 2023.
