 Gaussian 16, Revision B.01,
 Gaussian 16:  EM64L-G16RevB.01 20-Dec-2017

 ---------------------------------
 # TD=(NStates=1) B3LYP/6-31G(d,p)
 ---------------------------------

 -------
 ABSSPCT
 -------
 Symbolic Z-matrix:
 Charge =  0 Multiplicity = 1

                         Standard orientation:
 ---------------------------------------------------------------------
 Center     Atomic      Atomic             Coordinates (Angstroms)
 Number     Number       Type             X           Y           Z
 ---------------------------------------------------------------------
      1          6           0        0.388766   -1.294408   -0.045909
      2          6           0       -1.015196   -0.962381    0.040750
      3          6           0       -1.383648    0.312121   -0.023225
      4          6           0       -0.348933    1.365958    0.052699
      5          6           0        0.926922    0.954617   -0.041545
      6          6           0        1.407616   -0.349504   -0.008526
      7          1           0        0.815227   -2.227481    0.334317
      8          1           0        2.360038   -0.679688   -0.052127
      9          1           0        1.695059    1.779857   -0.038533
     10          1           0       -0.500684    2.313146    0.170913
     11          1           0       -2.532015    0.547691   -0.163570
     12          1           0       -1.690789   -1.891946   -0.096459
 ---------------------------------------------------------------------

 SCF Done:  E(RB3LYP) =  -232.197771120     A.U. after   13 cycles

 Excitation energies and oscillator strengths:

 Excited State   1:      Singlet-A      5.4638 eV  226.92 nm  f=0.0021  <S**2>=0.000
      20 -> 22         0.52077
      21 -> 22        -0.13367
      21 -> 23        -0.45222
 This state for optimization and/or second-order correction.
 Total Energy, E(TD-HF/TD-DFT) =  -231.996979058
 Copying the excited state density for this state as the 1-particle RhoCI density.

 The electronic state is 1-A.
 Alpha  occ. eigenvalues --  -10.20211 -10.19347 -10.18631 -10.18565 -10.18187
 Alpha  occ. eigenvalues --  -10.18001  -0.85150  -0.74882  -0.74313  -0.60691
 Alpha  occ. eigenvalues --   -0.58860  -0.52394  -0.45699  -0.44302  -0.42224
 Alpha  occ. eigenvalues --   -0.40996  -0.37232  -0.33568  -0.31520  -0.25661
 Alpha  occ. eigenvalues --   -0.24202
 Alpha virt. eigenvalues --   -0.01377   0.00985   0.08748   0.13170   0.13727
 Alpha virt. eigenvalues --    0.15795   0.16131   0.18875   0.20377   0.27543
 Alpha virt. eigenvalues --    0.28968   0.32106   0.34296   0.44369   0.49296

 Mulliken charges:
               1
     1  C   -0.108222
     2  C   -0.078529
     3  C   -0.096743
     4  C   -0.051370
     5  C   -0.088914
     6  C   -0.058370
     7  H    0.079976
     8  H    0.089401
     9  H    0.065285
    10  H    0.076592
    11  H    0.082584
    12  H    0.088311
 Sum of Mulliken charges =  -0.00000

 Dipole moment (field-independent basis, Debye):
    X=              0.1565    Y=              0.1127    Z=              0.1022  Tot=              0.2183
 Quadrupole moment (field-independent basis, Debye-Ang):
   XX=            -31.6225   YY=            -32.1701   ZZ=            -38.2733
   XY=             -0.3878   XZ=              0.4739   YZ=             -0.1377

 Normal termination of Gaussian 16 at Fri Nov 10 16:54:52 2023.
