 Gaussian 16, Revision B.01,
 Gaussian 16:  EM64L-G16RevB.01 20-Dec-2017

 ---------------------------------
 # TD=(NStates=1) B3LYP/6-31G(d,p)
 ---------------------------------

 -------
 ABSSPCT
 -------
 Symbolic Z-matrix:
 Charge =  0 Multiplicity = 1

                         Standard orientation:
 ---------------------------------------------------------------------
 Center     Atomic      Atomic             Coordinates (Angstroms)
 Number     Number       Type             X           Y           Z
 ---------------------------------------------------------------------
      1          6           0        1.353259   -0.468846    0.039006
      2          6           0        1.043266    0.890350    0.007694
      3          6           0       -0.258056    1.371298   -0.061347
      4          6           0       -1.340474    0.471913   -0.025768
      5          6           0       -1.050756   -0.937360    0.060103
      6          6           0        0.251212   -1.366390   -0.040647
      7          1           0        2.480053   -0.750127   -0.076382
      8          1           0        0.405879   -2.424017   -0.116584
      9          1           0       -1.992179   -1.476329    0.026460
     10          1           0       -2.326175    0.736491    0.122430
     11          1           0       -0.423078    2.542526   -0.013399
     12          1           0        1.864791    1.605665    0.183220
 ---------------------------------------------------------------------

 SCF Done:  E(RB3LYP) =  -232.231009068     A.U. after   13 cycles

 Excitation energies and oscillator strengths:

 Excited State   1:      Singlet-A      5.3921 eV  229.94 nm  f=0.0007  <S**2>=0.000
      20 -> 22         0.51527
      21 -> 23        -0.47416
 This state for optimization and/or second-order correction.
 Total Energy, E(TD-HF/TD-DFT) =  -232.032853718
 Copying the excited state density for this state as the 1-particle RhoCI density.

 The electronic state is 1-A.
 Alpha  occ. eigenvalues --  -10.20061 -10.19833 -10.19174 -10.18972 -10.18893
 Alpha  occ. eigenvalues --  -10.18737  -0.84450  -0.74131  -0.73607  -0.60178
 Alpha  occ. eigenvalues --   -0.59034  -0.51299  -0.45514  -0.44289  -0.41288
 Alpha  occ. eigenvalues --   -0.40652  -0.35851  -0.34941  -0.32277  -0.24938
 Alpha  occ. eigenvalues --   -0.24372
 Alpha virt. eigenvalues --   -0.00789   0.00349   0.07956   0.12908   0.13835
 Alpha virt. eigenvalues --    0.15116   0.16980   0.17932   0.19608   0.28081
 Alpha virt. eigenvalues --    0.29963   0.30601   0.32929   0.46571   0.50993

 Mulliken charges:
               1
     1  C   -0.086737
     2  C   -0.085327
     3  C   -0.075139
     4  C   -0.094614
     5  C   -0.076750
     6  C   -0.097657
     7  H    0.092037
     8  H    0.084563
     9  H    0.089258
    10  H    0.087383
    11  H    0.078630
    12  H    0.084355
 Sum of Mulliken charges =  -0.00000

 Dipole moment (field-independent basis, Debye):
    X=             -0.0886    Y=              0.0044    Z=              0.0656  Tot=              0.1104
 Quadrupole moment (field-independent basis, Debye-Ang):
   XX=            -30.9087   YY=            -32.4053   ZZ=            -38.6820
   XY=              0.2004   XZ=             -0.2184   YZ=              0.5460

 Normal termination of Gaussian 16 at Fri Nov 10 18:57:22 2023.
