 Gaussian 16, Revision B.01,
 Gaussian 16:  EM64L-G16RevB.01 20-Dec-2017

 ---------------------------------
 # TD=(NStates=1) B3LYP/6-31G(d,p)
 ---------------------------------

 -------
 ABSSPCT
 -------
 Symbolic Z-matrix:
 Charge =  0 Multiplicity = 1

                         Standard orientation:
 ---------------------------------------------------------------------
 Center     Atomic      Atomic             Coordinates (Angstroms)
 Number     Number       Type             X           Y           Z
 ---------------------------------------------------------------------
      1          6           0        0.184818   -1.339860    0.008814
      2          6           0        1.327968   -0.585375   -0.029176
      3          6           0        1.108195    0.828531   -0.052442
      4          6           0       -0.125808    1.379862   -0.009406
      5          6           0       -1.273035    0.498446    0.019987
      6          6           0       -1.150894   -0.830961   -0.057079
      7          1           0        0.235583   -2.448972    0.135100
      8          1           0       -2.150136   -1.303804    0.029299
      9          1           0       -2.324242    0.907867    0.140873
     10          1           0       -0.449771    2.529305    0.082027
     11          1           0        1.914244    1.532004    0.121771
     12          1           0        2.346851   -0.920260    0.206745
 ---------------------------------------------------------------------

 SCF Done:  E(RB3LYP) =  -232.222423433     A.U. after   12 cycles

 Excitation energies and oscillator strengths:

 Excited State   1:      Singlet-A      5.5645 eV  222.81 nm  f=0.0008  <S**2>=0.000
      20 -> 22         0.43374
      20 -> 23         0.19991
      21 -> 22        -0.23998
      21 -> 23         0.46237
 This state for optimization and/or second-order correction.
 Total Energy, E(TD-HF/TD-DFT) =  -232.017932488
 Copying the excited state density for this state as the 1-particle RhoCI density.

 The electronic state is 1-A.
 Alpha  occ. eigenvalues --  -10.19691 -10.19661 -10.19533 -10.18884 -10.18790
 Alpha  occ. eigenvalues --  -10.18700  -0.85049  -0.74915  -0.73447  -0.59750
 Alpha  occ. eigenvalues --   -0.59114  -0.51180  -0.44806  -0.44436  -0.41789
 Alpha  occ. eigenvalues --   -0.40459  -0.36286  -0.33870  -0.32299  -0.25316
 Alpha  occ. eigenvalues --   -0.24559
 Alpha virt. eigenvalues --   -0.00028   0.00307   0.07377   0.12481   0.13176
 Alpha virt. eigenvalues --    0.14923   0.16679   0.18395   0.19089   0.28486
 Alpha virt. eigenvalues --    0.28687   0.32642   0.33294   0.45160   0.51077

 Mulliken charges:
               1
     1  C   -0.116629
     2  C   -0.069933
     3  C   -0.111058
     4  C   -0.065740
     5  C   -0.091686
     6  C   -0.060582
     7  H    0.079701
     8  H    0.092189
     9  H    0.076148
    10  H    0.082528
    11  H    0.085669
    12  H    0.099395
 Sum of Mulliken charges =  -0.00000

 Dipole moment (field-independent basis, Debye):
    X=             -0.1021    Y=              0.0304    Z=              0.4287  Tot=              0.4418
 Quadrupole moment (field-independent basis, Debye-Ang):
   XX=            -31.0038   YY=            -32.7115   ZZ=            -38.5877
   XY=             -0.0623   XZ=              0.3115   YZ=             -0.0321

 Normal termination of Gaussian 16 at Fri Nov 10 16:15:40 2023.
