 Gaussian 16, Revision B.01,
 Gaussian 16:  EM64L-G16RevB.01 20-Dec-2017

 ---------------------------------
 # TD=(NStates=1) B3LYP/6-31G(d,p)
 ---------------------------------

 -------
 ABSSPCT
 -------
 Symbolic Z-matrix:
 Charge =  0 Multiplicity = 1

                         Standard orientation:
 ---------------------------------------------------------------------
 Center     Atomic      Atomic             Coordinates (Angstroms)
 Number     Number       Type             X           Y           Z
 ---------------------------------------------------------------------
      1          6           0       -1.373253   -0.352025   -0.028914
      2          6           0       -1.007892    0.943023   -0.035605
      3          6           0        0.339385    1.319715   -0.006200
      4          6           0        1.418070    0.376549    0.000027
      5          6           0        0.966138   -1.009132    0.010121
      6          6           0       -0.360774   -1.319048    0.038614
      7          1           0       -2.324784   -0.433974    0.079963
      8          1           0       -0.780032   -2.350048   -0.057403
      9          1           0        1.725043   -1.732883   -0.011453
     10          1           0        2.602042    0.592290   -0.100056
     11          1           0        0.669045    2.424175    0.162474
     12          1           0       -1.781360    1.745952    0.058222
 ---------------------------------------------------------------------

 SCF Done:  E(RB3LYP) =  -232.210103029     A.U. after   13 cycles

 Excitation energies and oscillator strengths:

 Excited State   1:      Singlet-A      5.4459 eV  227.67 nm  f=0.0021  <S**2>=0.000
      20 -> 22         0.46443
      20 -> 23         0.18217
      21 -> 22        -0.25434
      21 -> 23         0.43123
 This state for optimization and/or second-order correction.
 Total Energy, E(TD-HF/TD-DFT) =  -232.009971368
 Copying the excited state density for this state as the 1-particle RhoCI density.

 The electronic state is 1-A.
 Alpha  occ. eigenvalues --  -10.20989 -10.19908 -10.19010 -10.18877 -10.18596
 Alpha  occ. eigenvalues --  -10.17157  -0.84911  -0.74795  -0.73346  -0.60281
 Alpha  occ. eigenvalues --   -0.59361  -0.51615  -0.46015  -0.44155  -0.41602
 Alpha  occ. eigenvalues --   -0.40087  -0.35960  -0.35292  -0.31979  -0.25117
 Alpha  occ. eigenvalues --   -0.24342
 Alpha virt. eigenvalues --   -0.00719   0.00583   0.07696   0.12928   0.13904
 Alpha virt. eigenvalues --    0.15533   0.16455   0.17894   0.20257   0.28241
 Alpha virt. eigenvalues --    0.29415   0.31062   0.33718   0.45957   0.51895

 Mulliken charges:
               1
     1  C   -0.045143
     2  C   -0.081000
     3  C   -0.100254
     4  C   -0.096136
     5  C   -0.085056
     6  C   -0.087221
     7  H    0.073046
     8  H    0.081896
     9  H    0.085209
    10  H    0.094794
    11  H    0.076828
    12  H    0.083036
 Sum of Mulliken charges =  -0.00000

 Dipole moment (field-independent basis, Debye):
    X=             -0.0640    Y=             -0.0353    Z=              0.0701  Tot=              0.1013
 Quadrupole moment (field-independent basis, Debye-Ang):
   XX=            -30.5600   YY=            -32.7534   ZZ=            -38.5875
   XY=             -0.1885   XZ=             -0.3659   YZ=              0.4534

 Normal termination of Gaussian 16 at Fri Nov 10 17:58:37 2023.
