 Gaussian 16, Revision B.01,
 Gaussian 16:  EM64L-G16RevB.01 20-Dec-2017

 ---------------------------------
 # TD=(NStates=1) B3LYP/6-31G(d,p)
 ---------------------------------

 -------
 ABSSPCT
 -------
 Symbolic Z-matrix:
 Charge =  0 Multiplicity = 1

                         Standard orientation:
 ---------------------------------------------------------------------
 Center     Atomic      Atomic             Coordinates (Angstroms)
 Number     Number       Type             X           Y           Z
 ---------------------------------------------------------------------
      1          6           0        0.826199    1.184273    0.051945
      2          6           0       -0.596686    1.226610   -0.009518
      3          6           0       -1.450960    0.103738   -0.036637
      4          6           0       -0.804557   -1.129602    0.057790
      5          6           0        0.594917   -1.267425   -0.016207
      6          6           0        1.508253   -0.127032   -0.061348
      7          1           0        1.407555    2.086059    0.187940
      8          1           0        2.407746   -0.411832   -0.173315
      9          1           0        0.854802   -2.306714    0.185148
     10          1           0       -1.594180   -1.823602    0.009953
     11          1           0       -2.469474    0.391610   -0.112292
     12          1           0       -1.069444    2.121106   -0.013581
 ---------------------------------------------------------------------

 SCF Done:  E(RB3LYP) =  -232.195273794     A.U. after   13 cycles

 Excitation energies and oscillator strengths:

 Excited State   1:      Singlet-A      5.1028 eV  242.97 nm  f=0.0046  <S**2>=0.000
      20 -> 22         0.10254
      20 -> 23        -0.42223
      21 -> 22         0.55154
 This state for optimization and/or second-order correction.
 Total Energy, E(TD-HF/TD-DFT) =  -232.007748323
 Copying the excited state density for this state as the 1-particle RhoCI density.

 The electronic state is 1-A.
 Alpha  occ. eigenvalues --  -10.20337 -10.19615 -10.19543 -10.18398 -10.18338
 Alpha  occ. eigenvalues --  -10.18041  -0.83439  -0.74219  -0.73343  -0.61319
 Alpha  occ. eigenvalues --   -0.59847  -0.51821  -0.48530  -0.42675  -0.42342
 Alpha  occ. eigenvalues --   -0.40215  -0.36154  -0.34385  -0.32191  -0.24259
 Alpha  occ. eigenvalues --   -0.23968
 Alpha virt. eigenvalues --   -0.01362  -0.00005   0.10456   0.13826   0.15385
 Alpha virt. eigenvalues --    0.15544   0.16550   0.17722   0.20759   0.26997
 Alpha virt. eigenvalues --    0.28809   0.30102   0.31558   0.45285   0.48855

 Mulliken charges:
               1
     1  C   -0.101002
     2  C   -0.072517
     3  C   -0.078358
     4  C   -0.085035
     5  C   -0.111970
     6  C   -0.063566
     7  H    0.091940
     8  H    0.080107
     9  H    0.092010
    10  H    0.084865
    11  H    0.091011
    12  H    0.072515
 Sum of Mulliken charges =  -0.00000

 Dipole moment (field-independent basis, Debye):
    X=             -0.1361    Y=              0.1244    Z=              0.0412  Tot=              0.1890
 Quadrupole moment (field-independent basis, Debye-Ang):
   XX=            -30.6414   YY=            -32.0490   ZZ=            -38.5508
   XY=             -0.3936   XZ=              0.2043   YZ=             -0.0280

 Normal termination of Gaussian 16 at Fri Nov 10 18:26:58 2023.
