 Gaussian 16, Revision B.01,
 Gaussian 16:  EM64L-G16RevB.01 20-Dec-2017

 ---------------------------------
 # TD=(NStates=1) B3LYP/6-31G(d,p)
 ---------------------------------

 -------
 ABSSPCT
 -------
 Symbolic Z-matrix:
 Charge =  0 Multiplicity = 1

                         Standard orientation:
 ---------------------------------------------------------------------
 Center     Atomic      Atomic             Coordinates (Angstroms)
 Number     Number       Type             X           Y           Z
 ---------------------------------------------------------------------
      1          6           0       -1.421015    0.186535   -0.007274
      2          6           0       -0.525211    1.272342   -0.018651
      3          6           0        0.856720    1.038309    0.025656
      4          6           0        1.443805   -0.221649   -0.052361
      5          6           0        0.521500   -1.249835   -0.001864
      6          6           0       -0.912887   -1.052619    0.013057
      7          1           0       -2.475498    0.347596    0.048002
      8          1           0       -1.527029   -1.896372    0.153048
      9          1           0        0.901707   -2.230518   -0.102245
     10          1           0        2.571098   -0.351890    0.088488
     11          1           0        1.586542    1.978651    0.225813
     12          1           0       -0.834287    2.314034   -0.164490
 ---------------------------------------------------------------------

 SCF Done:  E(RB3LYP) =  -232.231947484     A.U. after   13 cycles

 Excitation energies and oscillator strengths:

 Excited State   1:      Singlet-A      5.4649 eV  226.88 nm  f=0.0035  <S**2>=0.000
      20 -> 22        -0.44070
      20 -> 23        -0.12707
      21 -> 22        -0.20607
      21 -> 23         0.49672
 This state for optimization and/or second-order correction.
 Total Energy, E(TD-HF/TD-DFT) =  -232.031117420
 Copying the excited state density for this state as the 1-particle RhoCI density.

 The electronic state is 1-A.
 Alpha  occ. eigenvalues --  -10.19731 -10.19375 -10.18996 -10.18817 -10.18537
 Alpha  occ. eigenvalues --  -10.18396  -0.84982  -0.75157  -0.73080  -0.60099
 Alpha  occ. eigenvalues --   -0.59127  -0.51656  -0.45383  -0.43968  -0.42707
 Alpha  occ. eigenvalues --   -0.40191  -0.36714  -0.34021  -0.32649  -0.25717
 Alpha  occ. eigenvalues --   -0.23828
 Alpha virt. eigenvalues --   -0.00563   0.00551   0.08219   0.13326   0.13718
 Alpha virt. eigenvalues --    0.16334   0.17418   0.17983   0.19019   0.28505
 Alpha virt. eigenvalues --    0.30107   0.31996   0.32690   0.46215   0.51816

 Mulliken charges:
               1
     1  C   -0.076319
     2  C   -0.086474
     3  C   -0.091330
     4  C   -0.073909
     5  C   -0.102828
     6  C   -0.073292
     7  H    0.087740
     8  H    0.084707
     9  H    0.080455
    10  H    0.095500
    11  H    0.067186
    12  H    0.088566
 Sum of Mulliken charges =  -0.00000

 Dipole moment (field-independent basis, Debye):
    X=             -0.0754    Y=             -0.1088    Z=              0.1316  Tot=              0.1867
 Quadrupole moment (field-independent basis, Debye-Ang):
   XX=            -31.1401   YY=            -32.2743   ZZ=            -38.4885
   XY=             -0.1233   XZ=              0.1963   YZ=             -0.0950

 Normal termination of Gaussian 16 at Fri Nov 10 17:54:39 2023.
