 Gaussian 16, Revision B.01,
 Gaussian 16:  EM64L-G16RevB.01 20-Dec-2017

 ---------------------------------
 # TD=(NStates=1) B3LYP/6-31G(d,p)
 ---------------------------------

 -------
 ABSSPCT
 -------
 Symbolic Z-matrix:
 Charge =  0 Multiplicity = 1

                         Standard orientation:
 ---------------------------------------------------------------------
 Center     Atomic      Atomic             Coordinates (Angstroms)
 Number     Number       Type             X           Y           Z
 ---------------------------------------------------------------------
      1          6           0       -1.130213    0.856084    0.009432
      2          6           0        0.156756    1.381275   -0.020205
      3          6           0        1.264276    0.550682    0.001927
      4          6           0        1.137820   -0.838288    0.044269
      5          6           0       -0.097704   -1.377353   -0.023490
      6          6           0       -1.281908   -0.586896   -0.013255
      7          1           0       -2.022336    1.505658    0.088033
      8          1           0       -2.321718   -0.978249    0.028560
      9          1           0       -0.472766   -2.352894    0.005967
     10          1           0        1.925098   -1.443103   -0.090217
     11          1           0        2.145605    0.976139    0.048583
     12          1           0        0.451952    2.379428   -0.072995
 ---------------------------------------------------------------------

 SCF Done:  E(RB3LYP) =  -232.219030076     A.U. after   13 cycles

 Excitation energies and oscillator strengths:

 Excited State   1:      Singlet-A      5.4608 eV  227.05 nm  f=0.0006  <S**2>=0.000
      20 -> 22         0.49309
      20 -> 23        -0.10233
      21 -> 22        -0.14038
      21 -> 23        -0.47566
 This state for optimization and/or second-order correction.
 Total Energy, E(TD-HF/TD-DFT) =  -232.018350827
 Copying the excited state density for this state as the 1-particle RhoCI density.

 The electronic state is 1-A.
 Alpha  occ. eigenvalues --  -10.19380 -10.19329 -10.18103 -10.17986 -10.17659
 Alpha  occ. eigenvalues --  -10.17340  -0.84761  -0.74821  -0.73879  -0.61227
 Alpha  occ. eigenvalues --   -0.59638  -0.52486  -0.47281  -0.44434  -0.41884
 Alpha  occ. eigenvalues --   -0.40886  -0.36051  -0.35181  -0.32407  -0.25080
 Alpha  occ. eigenvalues --   -0.24062
 Alpha virt. eigenvalues --   -0.00507   0.00745   0.10016   0.15031   0.15275
 Alpha virt. eigenvalues --    0.15992   0.17851   0.18748   0.20824   0.28767
 Alpha virt. eigenvalues --    0.29611   0.32006   0.32967   0.46093   0.52180

 Mulliken charges:
               1
     1  C   -0.095457
     2  C   -0.064380
     3  C   -0.076565
     4  C   -0.072019
     5  C   -0.072356
     6  C   -0.109370
     7  H    0.083620
     8  H    0.089624
     9  H    0.084151
    10  H    0.081651
    11  H    0.071846
    12  H    0.079256
 Sum of Mulliken charges =  -0.00000

 Dipole moment (field-independent basis, Debye):
    X=              0.0311    Y=              0.0404    Z=              0.0047  Tot=              0.0512
 Quadrupole moment (field-independent basis, Debye-Ang):
   XX=            -31.0546   YY=            -31.8214   ZZ=            -38.2729
   XY=              0.6244   XZ=             -0.3089   YZ=              0.0806

 Normal termination of Gaussian 16 at Fri Nov 10 17:32:33 2023.
