 Gaussian 16, Revision B.01,
 Gaussian 16:  EM64L-G16RevB.01 20-Dec-2017

 ---------------------------------
 # TD=(NStates=1) B3LYP/6-31G(d,p)
 ---------------------------------

 -------
 ABSSPCT
 -------
 Symbolic Z-matrix:
 Charge =  0 Multiplicity = 1

                         Standard orientation:
 ---------------------------------------------------------------------
 Center     Atomic      Atomic             Coordinates (Angstroms)
 Number     Number       Type             X           Y           Z
 ---------------------------------------------------------------------
      1          6           0        1.001954    0.936130   -0.024088
      2          6           0        1.340654   -0.407345    0.039489
      3          6           0        0.322049   -1.339077   -0.027751
      4          6           0       -0.992634   -0.927622   -0.037111
      5          6           0       -1.383013    0.347636   -0.047438
      6          6           0       -0.297867    1.357852    0.043359
      7          1           0        1.929312    1.487980   -0.258850
      8          1           0       -0.380544    2.478600    0.029111
      9          1           0       -2.396400    0.896583    0.116858
     10          1           0       -1.822985   -1.576978    0.313006
     11          1           0        0.374180   -2.345522   -0.212701
     12          1           0        2.349575   -0.746102    0.333811
 ---------------------------------------------------------------------

 SCF Done:  E(RB3LYP) =  -232.200120090     A.U. after   13 cycles

 Excitation energies and oscillator strengths:

 Excited State   1:      Singlet-A      5.2090 eV  238.02 nm  f=0.0037  <S**2>=0.000
      20 -> 22         0.49998
      20 -> 23        -0.16825
      21 -> 22        -0.27047
      21 -> 23        -0.38361
 This state for optimization and/or second-order correction.
 Total Energy, E(TD-HF/TD-DFT) =  -232.008692756
 Copying the excited state density for this state as the 1-particle RhoCI density.

 The electronic state is 1-A.
 Alpha  occ. eigenvalues --  -10.19838 -10.19449 -10.18834 -10.18415 -10.18227
 Alpha  occ. eigenvalues --  -10.17981  -0.85392  -0.75123  -0.73641  -0.61043
 Alpha  occ. eigenvalues --   -0.58634  -0.51578  -0.47081  -0.42745  -0.41635
 Alpha  occ. eigenvalues --   -0.41033  -0.36256  -0.33698  -0.32987  -0.24573
 Alpha  occ. eigenvalues --   -0.24006
 Alpha virt. eigenvalues --   -0.01130   0.00482   0.08319   0.12388   0.14031
 Alpha virt. eigenvalues --    0.16098   0.16700   0.17718   0.18470   0.28055
 Alpha virt. eigenvalues --    0.30367   0.32530   0.33800   0.44586   0.51095

 Mulliken charges:
               1
     1  C   -0.071783
     2  C   -0.097314
     3  C   -0.068028
     4  C   -0.103540
     5  C   -0.086053
     6  C   -0.109746
     7  H    0.087802
     8  H    0.085865
     9  H    0.093053
    10  H    0.088805
    11  H    0.088450
    12  H    0.092490
 Sum of Mulliken charges =  -0.00000

 Dipole moment (field-independent basis, Debye):
    X=              0.1418    Y=             -0.0304    Z=              0.1836  Tot=              0.2340
 Quadrupole moment (field-independent basis, Debye-Ang):
   XX=            -31.8442   YY=            -32.2689   ZZ=            -38.1732
   XY=             -0.1737   XZ=             -0.5555   YZ=             -0.2969

 Normal termination of Gaussian 16 at Fri Nov 10 18:42:20 2023.
