 Gaussian 16, Revision B.01,
 Gaussian 16:  EM64L-G16RevB.01 20-Dec-2017

 ---------------------------------
 # TD=(NStates=1) B3LYP/6-31G(d,p)
 ---------------------------------

 -------
 ABSSPCT
 -------
 Symbolic Z-matrix:
 Charge =  0 Multiplicity = 1

                         Standard orientation:
 ---------------------------------------------------------------------
 Center     Atomic      Atomic             Coordinates (Angstroms)
 Number     Number       Type             X           Y           Z
 ---------------------------------------------------------------------
      1          6           0        0.491525   -1.326723   -0.020151
      2          6           0       -0.900861   -1.013267   -0.081338
      3          6           0       -1.358883    0.221841    0.084148
      4          6           0       -0.483418    1.361618   -0.017650
      5          6           0        0.886048    1.076338   -0.035388
      6          6           0        1.412875   -0.277846    0.070694
      7          1           0        0.686745   -2.346933    0.018161
      8          1           0        2.438851   -0.442559    0.011951
      9          1           0        1.629280    1.838565   -0.040632
     10          1           0       -0.890474    2.305135   -0.072663
     11          1           0       -2.439745    0.230001    0.078918
     12          1           0       -1.708375   -1.835973    0.002378
 ---------------------------------------------------------------------

 SCF Done:  E(RB3LYP) =  -232.228960095     A.U. after   12 cycles

 Excitation energies and oscillator strengths:

 Excited State   1:      Singlet-A      5.3949 eV  229.82 nm  f=0.0007  <S**2>=0.000
      20 -> 22         0.49048
      20 -> 23        -0.13545
      21 -> 22         0.16791
      21 -> 23         0.46100
 This state for optimization and/or second-order correction.
 Total Energy, E(TD-HF/TD-DFT) =  -232.030701787
 Copying the excited state density for this state as the 1-particle RhoCI density.

 The electronic state is 1-A.
 Alpha  occ. eigenvalues --  -10.19299 -10.19117 -10.19058 -10.18745 -10.18468
 Alpha  occ. eigenvalues --  -10.18181  -0.84353  -0.74294  -0.73782  -0.61139
 Alpha  occ. eigenvalues --   -0.58801  -0.52022  -0.46490  -0.43580  -0.42538
 Alpha  occ. eigenvalues --   -0.40843  -0.35728  -0.34251  -0.33277  -0.24816
 Alpha  occ. eigenvalues --   -0.24342
 Alpha virt. eigenvalues --   -0.00652   0.00330   0.09204   0.14033   0.15256
 Alpha virt. eigenvalues --    0.15693   0.17734   0.18451   0.19918   0.27912
 Alpha virt. eigenvalues --    0.29854   0.31344   0.32004   0.46953   0.50031

 Mulliken charges:
               1
     1  C   -0.080844
     2  C   -0.083586
     3  C   -0.077052
     4  C   -0.076259
     5  C   -0.100951
     6  C   -0.083844
     7  H    0.085593
     8  H    0.088759
     9  H    0.084367
    10  H    0.088855
    11  H    0.081180
    12  H    0.073783
 Sum of Mulliken charges =  -0.00000

 Dipole moment (field-independent basis, Debye):
    X=              0.0137    Y=              0.0081    Z=             -0.0029  Tot=              0.0161
 Quadrupole moment (field-independent basis, Debye-Ang):
   XX=            -31.2973   YY=            -31.6837   ZZ=            -38.5085
   XY=              0.0864   XZ=             -0.1272   YZ=             -0.2577

 Normal termination of Gaussian 16 at Fri Nov 10 18:45:31 2023.
