 Gaussian 16, Revision B.01,
 Gaussian 16:  EM64L-G16RevB.01 20-Dec-2017

 ---------------------------------
 # TD=(NStates=1) B3LYP/6-31G(d,p)
 ---------------------------------

 -------
 ABSSPCT
 -------
 Symbolic Z-matrix:
 Charge =  0 Multiplicity = 1

                         Standard orientation:
 ---------------------------------------------------------------------
 Center     Atomic      Atomic             Coordinates (Angstroms)
 Number     Number       Type             X           Y           Z
 ---------------------------------------------------------------------
      1          6           0        1.414175    0.169733    0.000139
      2          6           0        0.588412    1.269125   -0.088862
      3          6           0       -0.862526    1.183490    0.014529
      4          6           0       -1.435556   -0.198917    0.070816
      5          6           0       -0.585458   -1.274677   -0.026060
      6          6           0        0.809481   -1.104992    0.001592
      7          1           0        2.441720    0.170110    0.287817
      8          1           0        1.657000   -1.900582    0.051954
      9          1           0       -0.796902   -2.256256   -0.168035
     10          1           0       -2.417800   -0.328188   -0.074589
     11          1           0       -1.488381    1.849897    0.109827
     12          1           0        1.033192    2.202444   -0.039901
 ---------------------------------------------------------------------

 SCF Done:  E(RB3LYP) =  -232.185349678     A.U. after   13 cycles

 Excitation energies and oscillator strengths:

 Excited State   1:      Singlet-A      5.1801 eV  239.35 nm  f=0.0005  <S**2>=0.000
      20 -> 22         0.48268
      21 -> 23         0.50769
 This state for optimization and/or second-order correction.
 Total Energy, E(TD-HF/TD-DFT) =  -231.994982842
 Copying the excited state density for this state as the 1-particle RhoCI density.

 The electronic state is 1-A.
 Alpha  occ. eigenvalues --  -10.19160 -10.18956 -10.18865 -10.18745 -10.18328
 Alpha  occ. eigenvalues --  -10.18102  -0.83856  -0.74766  -0.73472  -0.61152
 Alpha  occ. eigenvalues --   -0.60433  -0.52406  -0.47489  -0.44392  -0.42361
 Alpha  occ. eigenvalues --   -0.40730  -0.35557  -0.35073  -0.32192  -0.25061
 Alpha  occ. eigenvalues --   -0.23443
 Alpha virt. eigenvalues --   -0.01338   0.00076   0.09734   0.13937   0.15731
 Alpha virt. eigenvalues --    0.16020   0.18080   0.19348   0.20042   0.27100
 Alpha virt. eigenvalues --    0.28625   0.31841   0.32537   0.46461   0.49838

 Mulliken charges:
               1
     1  C   -0.074277
     2  C   -0.089116
     3  C   -0.055384
     4  C   -0.103816
     5  C   -0.058618
     6  C   -0.099641
     7  H    0.092464
     8  H    0.076510
     9  H    0.083279
    10  H    0.086016
    11  H    0.062702
    12  H    0.079881
 Sum of Mulliken charges =  -0.00000

 Dipole moment (field-independent basis, Debye):
    X=              0.0097    Y=              0.0363    Z=              0.0936  Tot=              0.1008
 Quadrupole moment (field-independent basis, Debye-Ang):
   XX=            -30.8426   YY=            -32.0348   ZZ=            -38.3048
   XY=             -0.4220   XZ=              0.7413   YZ=              0.4307

 Normal termination of Gaussian 16 at Fri Nov 10 16:49:57 2023.
