 Gaussian 16, Revision B.01,
 Gaussian 16:  EM64L-G16RevB.01 20-Dec-2017

 ---------------------------------
 # TD=(NStates=1) B3LYP/6-31G(d,p)
 ---------------------------------

 -------
 ABSSPCT
 -------
 Symbolic Z-matrix:
 Charge =  0 Multiplicity = 1

                         Standard orientation:
 ---------------------------------------------------------------------
 Center     Atomic      Atomic             Coordinates (Angstroms)
 Number     Number       Type             X           Y           Z
 ---------------------------------------------------------------------
      1          6           0        1.374067   -0.392103   -0.072274
      2          6           0        0.334953   -1.337261   -0.032682
      3          6           0       -1.011290   -0.939594    0.063075
      4          6           0       -1.313882    0.359423   -0.043165
      5          6           0       -0.373169    1.340169   -0.035059
      6          6           0        0.988655    0.955878    0.087021
      7          1           0        2.400131   -0.621003    0.009855
      8          1           0        1.701534    1.922947    0.169034
      9          1           0       -0.566420    2.392597   -0.046758
     10          1           0       -2.459766    0.582694   -0.158127
     11          1           0       -1.707644   -1.731979    0.324367
     12          1           0        0.636166   -2.464326   -0.099873
 ---------------------------------------------------------------------

 SCF Done:  E(RB3LYP) =  -232.224230787     A.U. after   13 cycles

 Excitation energies and oscillator strengths:

 Excited State   1:      Singlet-A      5.4849 eV  226.05 nm  f=0.0002  <S**2>=0.000
      20 -> 22         0.49048
      21 -> 23         0.50776
 This state for optimization and/or second-order correction.
 Total Energy, E(TD-HF/TD-DFT) =  -232.022664481
 Copying the excited state density for this state as the 1-particle RhoCI density.

 The electronic state is 1-A.
 Alpha  occ. eigenvalues --  -10.20097 -10.19896 -10.19057 -10.18970 -10.18536
 Alpha  occ. eigenvalues --  -10.18472  -0.85345  -0.74534  -0.73704  -0.59794
 Alpha  occ. eigenvalues --   -0.59067  -0.51707  -0.45294  -0.43700  -0.41905
 Alpha  occ. eigenvalues --   -0.40736  -0.36677  -0.33831  -0.32548  -0.25255
 Alpha  occ. eigenvalues --   -0.24301
 Alpha virt. eigenvalues --   -0.00328   0.00381   0.07336   0.12400   0.13309
 Alpha virt. eigenvalues --    0.15747   0.17406   0.17879   0.18339   0.28282
 Alpha virt. eigenvalues --    0.30689   0.31263   0.34039   0.45737   0.51568

 Mulliken charges:
               1
     1  C   -0.080727
     2  C   -0.103995
     3  C   -0.068334
     4  C   -0.079406
     5  C   -0.075397
     6  C   -0.098219
     7  H    0.092984
     8  H    0.074416
     9  H    0.089818
    10  H    0.075168
    11  H    0.092380
    12  H    0.081310
 Sum of Mulliken charges =  -0.00000

 Dipole moment (field-independent basis, Debye):
    X=             -0.0005    Y=             -0.0219    Z=              0.1219  Tot=              0.1239
 Quadrupole moment (field-independent basis, Debye-Ang):
   XX=            -32.2147   YY=            -31.5171   ZZ=            -38.5441
   XY=              0.1236   XZ=              0.0180   YZ=             -0.2273

 Normal termination of Gaussian 16 at Fri Nov 10 17:53:41 2023.
