 Gaussian 16, Revision B.01,
 Gaussian 16:  EM64L-G16RevB.01 20-Dec-2017

 ---------------------------------
 # TD=(NStates=1) B3LYP/6-31G(d,p)
 ---------------------------------

 -------
 ABSSPCT
 -------
 Symbolic Z-matrix:
 Charge =  0 Multiplicity = 1

                         Standard orientation:
 ---------------------------------------------------------------------
 Center     Atomic      Atomic             Coordinates (Angstroms)
 Number     Number       Type             X           Y           Z
 ---------------------------------------------------------------------
      1          6           0       -0.325752    1.355056    0.028087
      2          6           0        0.999180    0.915163   -0.079133
      3          6           0        1.437331   -0.364651    0.057463
      4          6           0        0.393473   -1.298133   -0.057137
      5          6           0       -1.062928   -1.005164   -0.006728
      6          6           0       -1.411419    0.364187    0.017620
      7          1           0       -0.758311    2.408516    0.006631
      8          1           0       -2.449309    0.603467    0.014073
      9          1           0       -1.782833   -1.734900    0.050373
     10          1           0        0.616789   -2.276099    0.012900
     11          1           0        2.494857   -0.477137    0.167054
     12          1           0        1.699497    1.677411   -0.012055
 ---------------------------------------------------------------------

 SCF Done:  E(RB3LYP) =  -232.213958664     A.U. after   13 cycles

 Excitation energies and oscillator strengths:

 Excited State   1:      Singlet-A      5.2293 eV  237.10 nm  f=0.0015  <S**2>=0.000
      20 -> 22        -0.46017
      21 -> 22         0.14746
      21 -> 23         0.50609
 This state for optimization and/or second-order correction.
 Total Energy, E(TD-HF/TD-DFT) =  -232.021785497
 Copying the excited state density for this state as the 1-particle RhoCI density.

 The electronic state is 1-A.
 Alpha  occ. eigenvalues --  -10.19807 -10.19221 -10.19167 -10.18909 -10.18853
 Alpha  occ. eigenvalues --  -10.17970  -0.83896  -0.74756  -0.72636  -0.60639
 Alpha  occ. eigenvalues --   -0.59433  -0.51823  -0.47354  -0.43864  -0.42621
 Alpha  occ. eigenvalues --   -0.39982  -0.35280  -0.34563  -0.32806  -0.24996
 Alpha  occ. eigenvalues --   -0.23467
 Alpha virt. eigenvalues --   -0.00888   0.00068   0.09670   0.13867   0.14415
 Alpha virt. eigenvalues --    0.15334   0.17448   0.19379   0.19600   0.27257
 Alpha virt. eigenvalues --    0.29072   0.30454   0.32663   0.44678   0.48106

 Mulliken charges:
               1
     1  C   -0.088682
     2  C   -0.085230
     3  C   -0.060321
     4  C   -0.107672
     5  C   -0.074308
     6  C   -0.093726
     7  H    0.088847
     8  H    0.085432
     9  H    0.088009
    10  H    0.074045
    11  H    0.098209
    12  H    0.075395
 Sum of Mulliken charges =  -0.00000

 Dipole moment (field-independent basis, Debye):
    X=             -0.0231    Y=             -0.0554    Z=              0.1540  Tot=              0.1653
 Quadrupole moment (field-independent basis, Debye-Ang):
   XX=            -30.3249   YY=            -32.2806   ZZ=            -38.5981
   XY=              0.1146   XZ=              0.2575   YZ=             -0.1688

 Normal termination of Gaussian 16 at Fri Nov 10 16:12:11 2023.
