 Gaussian 16, Revision B.01,
 Gaussian 16:  EM64L-G16RevB.01 20-Dec-2017

 ---------------------------------
 # TD=(NStates=1) B3LYP/6-31G(d,p)
 ---------------------------------

 -------
 ABSSPCT
 -------
 Symbolic Z-matrix:
 Charge =  0 Multiplicity = 1

                         Standard orientation:
 ---------------------------------------------------------------------
 Center     Atomic      Atomic             Coordinates (Angstroms)
 Number     Number       Type             X           Y           Z
 ---------------------------------------------------------------------
      1          6           0       -0.164284   -1.382694   -0.025784
      2          6           0       -1.256927   -0.568647   -0.082557
      3          6           0       -1.149652    0.785727    0.074059
      4          6           0        0.123349    1.403209    0.054560
      5          6           0        1.279538    0.575906   -0.101308
      6          6           0        1.193371   -0.827072    0.067686
      7          1           0       -0.408168   -2.467795    0.117635
      8          1           0        2.107226   -1.426846    0.189700
      9          1           0        2.365224    1.090606   -0.077017
     10          1           0        0.147551    2.454524   -0.180902
     11          1           0       -2.083400    1.373841    0.215716
     12          1           0       -2.280806   -0.942908   -0.185071
 ---------------------------------------------------------------------

 SCF Done:  E(RB3LYP) =  -232.228531168     A.U. after   12 cycles

 Excitation energies and oscillator strengths:

 Excited State   1:      Singlet-A      5.2733 eV  235.11 nm  f=0.0002  <S**2>=0.000
      20 -> 22         0.50122
      21 -> 23         0.48920
 This state for optimization and/or second-order correction.
 Total Energy, E(TD-HF/TD-DFT) =  -232.034739171
 Copying the excited state density for this state as the 1-particle RhoCI density.

 The electronic state is 1-A.
 Alpha  occ. eigenvalues --  -10.20511 -10.20278 -10.19796 -10.19275 -10.19013
 Alpha  occ. eigenvalues --  -10.18359  -0.84381  -0.74090  -0.73200  -0.60268
 Alpha  occ. eigenvalues --   -0.58243  -0.51131  -0.45394  -0.43505  -0.41475
 Alpha  occ. eigenvalues --   -0.40826  -0.36017  -0.34133  -0.32908  -0.25004
 Alpha  occ. eigenvalues --   -0.23980
 Alpha virt. eigenvalues --   -0.01138   0.00137   0.07873   0.12691   0.14009
 Alpha virt. eigenvalues --    0.14880   0.16361   0.17121   0.19058   0.28268
 Alpha virt. eigenvalues --    0.28934   0.30902   0.32049   0.46847   0.49491

 Mulliken charges:
               1
     1  C   -0.101535
     2  C   -0.057946
     3  C   -0.085780
     4  C   -0.093378
     5  C   -0.096586
     6  C   -0.090949
     7  H    0.087148
     8  H    0.097532
     9  H    0.076524
    10  H    0.094094
    11  H    0.085974
    12  H    0.084900
 Sum of Mulliken charges =  -0.00000

 Dipole moment (field-independent basis, Debye):
    X=             -0.1930    Y=             -0.0447    Z=              0.0567  Tot=              0.2061
 Quadrupole moment (field-independent basis, Debye-Ang):
   XX=            -31.2825   YY=            -32.1624   ZZ=            -38.7331
   XY=             -0.2221   XZ=              0.1559   YZ=             -0.5877

 Normal termination of Gaussian 16 at Fri Nov 10 18:23:50 2023.
