 Gaussian 16, Revision B.01,
 Gaussian 16:  EM64L-G16RevB.01 20-Dec-2017

 ---------------------------------
 # TD=(NStates=1) B3LYP/6-31G(d,p)
 ---------------------------------

 -------
 ABSSPCT
 -------
 Symbolic Z-matrix:
 Charge =  0 Multiplicity = 1

                         Standard orientation:
 ---------------------------------------------------------------------
 Center     Atomic      Atomic             Coordinates (Angstroms)
 Number     Number       Type             X           Y           Z
 ---------------------------------------------------------------------
      1          6           0        0.567483   -1.201614   -0.063853
      2          6           0       -0.819854   -1.118543    0.026394
      3          6           0       -1.423194    0.079232   -0.035555
      4          6           0       -0.626763    1.269280   -0.055728
      5          6           0        0.797236    1.114404    0.001277
      6          6           0        1.437476   -0.100988    0.082461
      7          1           0        1.178345   -2.223139   -0.125787
      8          1           0        2.538408   -0.291276    0.093540
      9          1           0        1.642044    1.837443   -0.094234
     10          1           0       -1.097073    2.294130    0.084522
     11          1           0       -2.502370    0.078690    0.263502
     12          1           0       -1.353653   -1.946473    0.048485
 ---------------------------------------------------------------------

 SCF Done:  E(RB3LYP) =  -232.209134614     A.U. after   13 cycles

 Excitation energies and oscillator strengths:

 Excited State   1:      Singlet-A      5.3729 eV  230.76 nm  f=0.0043  <S**2>=0.000
      20 -> 22         0.43532
      20 -> 23        -0.13781
      21 -> 22         0.25877
      21 -> 23         0.47297
 This state for optimization and/or second-order correction.
 Total Energy, E(TD-HF/TD-DFT) =  -232.011684550
 Copying the excited state density for this state as the 1-particle RhoCI density.

 The electronic state is 1-A.
 Alpha  occ. eigenvalues --  -10.20422 -10.19567 -10.19465 -10.19251 -10.19027
 Alpha  occ. eigenvalues --  -10.17463  -0.85045  -0.75528  -0.72722  -0.60416
 Alpha  occ. eigenvalues --   -0.59034  -0.51652  -0.45138  -0.44127  -0.42525
 Alpha  occ. eigenvalues --   -0.40202  -0.36502  -0.34075  -0.31979  -0.25661
 Alpha  occ. eigenvalues --   -0.23767
 Alpha virt. eigenvalues --   -0.01004   0.00508   0.07873   0.12768   0.13556
 Alpha virt. eigenvalues --    0.14702   0.16118   0.18561   0.19687   0.28653
 Alpha virt. eigenvalues --    0.29118   0.31647   0.33033   0.46134   0.50139

 Mulliken charges:
               1
     1  C   -0.088658
     2  C   -0.046773
     3  C   -0.096063
     4  C   -0.108111
     5  C   -0.084267
     6  C   -0.081805
     7  H    0.062572
     8  H    0.097412
     9  H    0.083478
    10  H    0.093547
    11  H    0.088770
    12  H    0.079898
 Sum of Mulliken charges =  -0.00000

 Dipole moment (field-independent basis, Debye):
    X=              0.1158    Y=             -0.1407    Z=              0.1818  Tot=              0.2574
 Quadrupole moment (field-independent basis, Debye-Ang):
   XX=            -30.7063   YY=            -33.0122   ZZ=            -38.5588
   XY=              0.1108   XZ=             -0.7270   YZ=              0.1286

 Normal termination of Gaussian 16 at Fri Nov 10 17:45:39 2023.
