 Gaussian 16, Revision B.01,
 Gaussian 16:  EM64L-G16RevB.01 20-Dec-2017

 ---------------------------------
 # TD=(NStates=1) B3LYP/6-31G(d,p)
 ---------------------------------

 -------
 ABSSPCT
 -------
 Symbolic Z-matrix:
 Charge =  0 Multiplicity = 1

                         Standard orientation:
 ---------------------------------------------------------------------
 Center     Atomic      Atomic             Coordinates (Angstroms)
 Number     Number       Type             X           Y           Z
 ---------------------------------------------------------------------
      1          6           0       -0.442411    1.371576   -0.028840
      2          6           0       -1.345531    0.349053   -0.002967
      3          6           0       -0.933812   -0.987355   -0.041002
      4          6           0        0.374061   -1.305858   -0.012539
      5          6           0        1.389923   -0.336112   -0.044569
      6          6           0        0.948174    0.972748    0.000531
      7          1           0       -0.454670    2.354663    0.230671
      8          1           0        1.787365    1.662252    0.111949
      9          1           0        2.442144   -0.723362    0.063661
     10          1           0        0.735674   -2.231041    0.182564
     11          1           0       -1.930074   -1.714173    0.260701
     12          1           0       -2.522869    0.267347   -0.073231
 ---------------------------------------------------------------------

 SCF Done:  E(RB3LYP) =  -232.188367662     A.U. after   13 cycles

 Excitation energies and oscillator strengths:

 Excited State   1:      Singlet-A      5.5064 eV  225.17 nm  f=0.0017  <S**2>=0.000
      20 -> 22        -0.18059
      20 -> 23         0.42674
      21 -> 22         0.49464
      21 -> 23         0.20023
 This state for optimization and/or second-order correction.
 Total Energy, E(TD-HF/TD-DFT) =  -231.986012723
 Copying the excited state density for this state as the 1-particle RhoCI density.

 The electronic state is 1-A.
 Alpha  occ. eigenvalues --  -10.19972 -10.19706 -10.19184 -10.19090 -10.19070
 Alpha  occ. eigenvalues --  -10.17743  -0.85415  -0.74978  -0.74013  -0.61340
 Alpha  occ. eigenvalues --   -0.58797  -0.52034  -0.46105  -0.44284  -0.41577
 Alpha  occ. eigenvalues --   -0.39630  -0.36801  -0.32780  -0.32519  -0.25353
 Alpha  occ. eigenvalues --   -0.24755
 Alpha virt. eigenvalues --   -0.00369   0.00039   0.05923   0.11690   0.13817
 Alpha virt. eigenvalues --    0.14986   0.17041   0.18421   0.20385   0.27031
 Alpha virt. eigenvalues --    0.30091   0.32510   0.34482   0.45541   0.49955

 Mulliken charges:
               1
     1  C   -0.070446
     2  C   -0.082759
     3  C   -0.071964
     4  C   -0.074690
     5  C   -0.076198
     6  C   -0.123007
     7  H    0.095647
     8  H    0.083031
     9  H    0.091198
    10  H    0.077918
    11  H    0.067378
    12  H    0.083892
 Sum of Mulliken charges =  -0.00000

 Dipole moment (field-independent basis, Debye):
    X=              0.3363    Y=             -0.0385    Z=              0.4639  Tot=              0.5743
 Quadrupole moment (field-independent basis, Debye-Ang):
   XX=            -31.4989   YY=            -32.7228   ZZ=            -38.4141
   XY=              0.1225   XZ=              0.1220   YZ=             -0.0375

 Normal termination of Gaussian 16 at Fri Nov 10 18:56:25 2023.
