 Gaussian 16, Revision B.01,
 Gaussian 16:  EM64L-G16RevB.01 20-Dec-2017

 ---------------------------------
 # TD=(NStates=1) B3LYP/6-31G(d,p)
 ---------------------------------

 -------
 ABSSPCT
 -------
 Symbolic Z-matrix:
 Charge =  0 Multiplicity = 1

                         Standard orientation:
 ---------------------------------------------------------------------
 Center     Atomic      Atomic             Coordinates (Angstroms)
 Number     Number       Type             X           Y           Z
 ---------------------------------------------------------------------
      1          6           0        1.256826    0.704230    0.028356
      2          6           0        1.176909   -0.723842    0.030213
      3          6           0       -0.013302   -1.351658   -0.036944
      4          6           0       -1.213567   -0.661617   -0.022156
      5          6           0       -1.162781    0.660246   -0.050931
      6          6           0       -0.022339    1.394757    0.065618
      7          1           0        2.164087    1.022203   -0.165073
      8          1           0        0.015849    2.507344   -0.053599
      9          1           0       -2.160282    1.113700   -0.051068
     10          1           0       -2.179270   -1.049231    0.176586
     11          1           0       -0.111587   -2.448167    0.143406
     12          1           0        2.140726   -1.278548   -0.135184
 ---------------------------------------------------------------------

 SCF Done:  E(RB3LYP) =  -232.214818078     A.U. after   12 cycles

 Excitation energies and oscillator strengths:

 Excited State   1:      Singlet-A      5.4862 eV  225.99 nm  f=0.0016  <S**2>=0.000
      20 -> 22         0.53531
      21 -> 23         0.46136
 This state for optimization and/or second-order correction.
 Total Energy, E(TD-HF/TD-DFT) =  -232.013203740
 Copying the excited state density for this state as the 1-particle RhoCI density.

 The electronic state is 1-A.
 Alpha  occ. eigenvalues --  -10.19577 -10.18733 -10.18679 -10.18321 -10.17705
 Alpha  occ. eigenvalues --  -10.17502  -0.85706  -0.75224  -0.73871  -0.61593
 Alpha  occ. eigenvalues --   -0.58894  -0.51992  -0.46658  -0.44169  -0.41960
 Alpha  occ. eigenvalues --   -0.40584  -0.36461  -0.35544  -0.31838  -0.25337
 Alpha  occ. eigenvalues --   -0.24312
 Alpha virt. eigenvalues --   -0.01038   0.01054   0.08923   0.13630   0.14635
 Alpha virt. eigenvalues --    0.15820   0.17263   0.19638   0.20476   0.29266
 Alpha virt. eigenvalues --    0.29463   0.31813   0.35023   0.46110   0.52328

 Mulliken charges:
               1
     1  C   -0.073867
     2  C   -0.096200
     3  C   -0.086220
     4  C   -0.065625
     5  C   -0.065735
     6  C   -0.100952
     7  H    0.083093
     8  H    0.085529
     9  H    0.074284
    10  H    0.088266
    11  H    0.076664
    12  H    0.080762
 Sum of Mulliken charges =  -0.00000

 Dipole moment (field-independent basis, Debye):
    X=             -0.0361    Y=              0.0287    Z=             -0.0707  Tot=              0.0844
 Quadrupole moment (field-independent basis, Debye-Ang):
   XX=            -30.9622   YY=            -32.7301   ZZ=            -38.1653
   XY=              0.3545   XZ=             -0.8593   YZ=             -0.6014

 Normal termination of Gaussian 16 at Fri Nov 10 17:26:56 2023.
