 Gaussian 16, Revision B.01,
 Gaussian 16:  EM64L-G16RevB.01 20-Dec-2017

 ---------------------------------
 # TD=(NStates=1) B3LYP/6-31G(d,p)
 ---------------------------------

 -------
 ABSSPCT
 -------
 Symbolic Z-matrix:
 Charge =  0 Multiplicity = 1

                         Standard orientation:
 ---------------------------------------------------------------------
 Center     Atomic      Atomic             Coordinates (Angstroms)
 Number     Number       Type             X           Y           Z
 ---------------------------------------------------------------------
      1          6           0       -0.538038   -1.305592    0.000982
      2          6           0       -1.414065   -0.153642   -0.025220
      3          6           0       -0.868781    1.090557   -0.069088
      4          6           0        0.578158    1.247802    0.075998
      5          6           0        1.413705    0.159077   -0.007785
      6          6           0        0.829151   -1.089036   -0.042819
      7          1           0       -1.169910   -2.299030    0.196370
      8          1           0        1.578768   -1.976552   -0.013163
      9          1           0        2.544747    0.290781    0.086824
     10          1           0        1.026824    2.307391   -0.077686
     11          1           0       -1.472368    2.124085    0.090533
     12          1           0       -2.508837   -0.141675    0.124712
 ---------------------------------------------------------------------

 SCF Done:  E(RB3LYP) =  -232.214411840     A.U. after   13 cycles

 Excitation energies and oscillator strengths:

 Excited State   1:      Singlet-A      5.4486 eV  227.55 nm  f=0.0003  <S**2>=0.000
      20 -> 22         0.49176
      21 -> 23         0.49390
 This state for optimization and/or second-order correction.
 Total Energy, E(TD-HF/TD-DFT) =  -232.014180041
 Copying the excited state density for this state as the 1-particle RhoCI density.

 The electronic state is 1-A.
 Alpha  occ. eigenvalues --  -10.20859 -10.20094 -10.19922 -10.19768 -10.19451
 Alpha  occ. eigenvalues --  -10.19447  -0.84830  -0.74716  -0.72854  -0.59597
 Alpha  occ. eigenvalues --   -0.58437  -0.50372  -0.44969  -0.43497  -0.41467
 Alpha  occ. eigenvalues --   -0.39758  -0.36236  -0.33532  -0.32480  -0.25610
 Alpha  occ. eigenvalues --   -0.24329
 Alpha virt. eigenvalues --   -0.00997   0.00322   0.06301   0.11598   0.12243
 Alpha virt. eigenvalues --    0.14304   0.16070   0.17208   0.17454   0.27479
 Alpha virt. eigenvalues --    0.29380   0.31895   0.32489   0.45737   0.50782

 Mulliken charges:
               1
     1  C   -0.088629
     2  C   -0.088781
     3  C   -0.083747
     4  C   -0.100695
     5  C   -0.065761
     6  C   -0.092457
     7  H    0.093401
     8  H    0.080591
     9  H    0.093086
    10  H    0.080178
    11  H    0.079175
    12  H    0.093639
 Sum of Mulliken charges =  -0.00000

 Dipole moment (field-independent basis, Debye):
    X=             -0.0008    Y=              0.0108    Z=              0.2454  Tot=              0.2456
 Quadrupole moment (field-independent basis, Debye-Ang):
   XX=            -31.2815   YY=            -32.6244   ZZ=            -38.9267
   XY=              0.1901   XZ=             -0.4883   YZ=             -0.3336

 Normal termination of Gaussian 16 at Fri Nov 10 18:35:52 2023.
