 Gaussian 16, Revision B.01,
 Gaussian 16:  EM64L-G16RevB.01 20-Dec-2017

 ---------------------------------
 # TD=(NStates=1) B3LYP/6-31G(d,p)
 ---------------------------------

 -------
 ABSSPCT
 -------
 Symbolic Z-matrix:
 Charge =  0 Multiplicity = 1

                         Standard orientation:
 ---------------------------------------------------------------------
 Center     Atomic      Atomic             Coordinates (Angstroms)
 Number     Number       Type             X           Y           Z
 ---------------------------------------------------------------------
      1          6           0       -0.636329    1.180752    0.072234
      2          6           0        0.773945    1.195995   -0.039347
      3          6           0        1.414985   -0.064833    0.009713
      4          6           0        0.664666   -1.169872   -0.113519
      5          6           0       -0.769073   -1.176898    0.038887
      6          6           0       -1.419148    0.022800   -0.016751
      7          1           0       -1.122875    2.276725   -0.197841
      8          1           0       -2.486542    0.204114    0.091481
      9          1           0       -1.373129   -2.065073    0.034402
     10          1           0        1.223767   -2.114351    0.019071
     11          1           0        2.413404   -0.261207    0.394483
     12          1           0        1.171103    2.032126   -0.048899
 ---------------------------------------------------------------------

 SCF Done:  E(RB3LYP) =  -232.193902278     A.U. after   12 cycles

 Excitation energies and oscillator strengths:

 Excited State   1:      Singlet-A      5.2986 eV  233.99 nm  f=0.0001  <S**2>=0.000
      20 -> 22        -0.49039
      21 -> 23         0.49128
 This state for optimization and/or second-order correction.
 Total Energy, E(TD-HF/TD-DFT) =  -231.999180576
 Copying the excited state density for this state as the 1-particle RhoCI density.

 The electronic state is 1-A.
 Alpha  occ. eigenvalues --  -10.19775 -10.19304 -10.18828 -10.18808 -10.18630
 Alpha  occ. eigenvalues --  -10.17673  -0.85122  -0.75240  -0.73732  -0.61533
 Alpha  occ. eigenvalues --   -0.58285  -0.52370  -0.46442  -0.44011  -0.42895
 Alpha  occ. eigenvalues --   -0.39668  -0.36552  -0.34608  -0.32240  -0.25095
 Alpha  occ. eigenvalues --   -0.24268
 Alpha virt. eigenvalues --   -0.00999  -0.00159   0.08702   0.12078   0.14407
 Alpha virt. eigenvalues --    0.15384   0.17565   0.19211   0.20263   0.28427
 Alpha virt. eigenvalues --    0.30531   0.31787   0.32680   0.46129   0.48672

 Mulliken charges:
               1
     1  C   -0.100143
     2  C   -0.043924
     3  C   -0.078725
     4  C   -0.094609
     5  C   -0.084457
     6  C   -0.073580
     7  H    0.059314
     8  H    0.091617
     9  H    0.089132
    10  H    0.078500
    11  H    0.093885
    12  H    0.062991
 Sum of Mulliken charges =  -0.00000

 Dipole moment (field-independent basis, Debye):
    X=              0.0349    Y=             -0.1119    Z=              0.1997  Tot=              0.2316
 Quadrupole moment (field-independent basis, Debye-Ang):
   XX=            -31.7335   YY=            -32.1872   ZZ=            -38.2279
   XY=              0.1825   XZ=              0.6793   YZ=             -0.6282

 Normal termination of Gaussian 16 at Fri Nov 10 16:17:31 2023.
