 Gaussian 16, Revision B.01,
 Gaussian 16:  EM64L-G16RevB.01 20-Dec-2017

 ---------------------------------
 # TD=(NStates=1) B3LYP/6-31G(d,p)
 ---------------------------------

 -------
 ABSSPCT
 -------
 Symbolic Z-matrix:
 Charge =  0 Multiplicity = 1

                         Standard orientation:
 ---------------------------------------------------------------------
 Center     Atomic      Atomic             Coordinates (Angstroms)
 Number     Number       Type             X           Y           Z
 ---------------------------------------------------------------------
      1          6           0        0.012491   -1.307832    0.032044
      2          6           0        1.281763   -0.675502   -0.070062
      3          6           0        1.166371    0.644136    0.082366
      4          6           0       -0.037686    1.420744   -0.068968
      5          6           0       -1.226430    0.657588   -0.028378
      6          6           0       -1.234921   -0.740889    0.021427
      7          1           0        0.112195   -2.472340    0.002800
      8          1           0       -2.241399   -1.297206    0.035115
      9          1           0       -2.071814    1.163032    0.028031
     10          1           0       -0.059822    2.394264    0.103131
     11          1           0        2.195876    1.335832    0.097964
     12          1           0        2.295433   -1.113052   -0.077605
 ---------------------------------------------------------------------

 SCF Done:  E(RB3LYP) =  -232.198417006     A.U. after   13 cycles

 Excitation energies and oscillator strengths:

 Excited State   1:      Singlet-A      5.4844 eV  226.07 nm  f=0.0009  <S**2>=0.000
      20 -> 22         0.47984
      20 -> 23        -0.11966
      21 -> 22        -0.16982
      21 -> 23        -0.47550
 This state for optimization and/or second-order correction.
 Total Energy, E(TD-HF/TD-DFT) =  -231.996869363
 Copying the excited state density for this state as the 1-particle RhoCI density.

 The electronic state is 1-A.
 Alpha  occ. eigenvalues --  -10.19994 -10.19843 -10.19602 -10.19108 -10.18250
 Alpha  occ. eigenvalues --  -10.18138  -0.85274  -0.75262  -0.73488  -0.60793
 Alpha  occ. eigenvalues --   -0.58747  -0.51911  -0.45749  -0.44024  -0.42654
 Alpha  occ. eigenvalues --   -0.40948  -0.36351  -0.33925  -0.31633  -0.25482
 Alpha  occ. eigenvalues --   -0.24303
 Alpha virt. eigenvalues --   -0.00717   0.00529   0.07381   0.11926   0.14924
 Alpha virt. eigenvalues --    0.15173   0.16416   0.17778   0.20412   0.28007
 Alpha virt. eigenvalues --    0.28487   0.32642   0.34404   0.43688   0.47052

 Mulliken charges:
               1
     1  C   -0.113290
     2  C   -0.058914
     3  C   -0.087622
     4  C   -0.063912
     5  C   -0.086352
     6  C   -0.060579
     7  H    0.065462
     8  H    0.096808
     9  H    0.073215
    10  H    0.085717
    11  H    0.046215
    12  H    0.103252
 Sum of Mulliken charges =  -0.00000

 Dipole moment (field-independent basis, Debye):
    X=             -0.1787    Y=              0.0337    Z=              0.1173  Tot=              0.2164
 Quadrupole moment (field-independent basis, Debye-Ang):
   XX=            -31.2246   YY=            -32.4599   ZZ=            -38.5545
   XY=             -0.5964   XZ=             -0.1759   YZ=              0.3828

 Normal termination of Gaussian 16 at Fri Nov 10 17:08:29 2023.
