 Gaussian 16, Revision B.01,
 Gaussian 16:  EM64L-G16RevB.01 20-Dec-2017

 ---------------------------------
 # TD=(NStates=1) B3LYP/6-31G(d,p)
 ---------------------------------

 -------
 ABSSPCT
 -------
 Symbolic Z-matrix:
 Charge =  0 Multiplicity = 1

                         Standard orientation:
 ---------------------------------------------------------------------
 Center     Atomic      Atomic             Coordinates (Angstroms)
 Number     Number       Type             X           Y           Z
 ---------------------------------------------------------------------
      1          6           0       -1.374070   -0.269553    0.048806
      2          6           0       -0.931090    1.041808   -0.095040
      3          6           0        0.437482    1.317888    0.023834
      4          6           0        1.401326    0.214950   -0.020308
      5          6           0        0.981949   -1.027546   -0.056684
      6          6           0       -0.468817   -1.258743    0.086026
      7          1           0       -2.432107   -0.602357   -0.030971
      8          1           0       -0.864275   -2.340969    0.104888
      9          1           0        1.602205   -1.792835   -0.220049
     10          1           0        2.425841    0.645480    0.015636
     11          1           0        0.745356    2.259132    0.501737
     12          1           0       -1.757697    1.718727   -0.291045
 ---------------------------------------------------------------------

 SCF Done:  E(RB3LYP) =  -232.209869889     A.U. after   13 cycles

 Excitation energies and oscillator strengths:

 Excited State   1:      Singlet-A      5.3240 eV  232.88 nm  f=0.0024  <S**2>=0.000
      20 -> 22         0.48850
      21 -> 22         0.14743
      21 -> 23         0.48631
 This state for optimization and/or second-order correction.
 Total Energy, E(TD-HF/TD-DFT) =  -232.014217919
 Copying the excited state density for this state as the 1-particle RhoCI density.

 The electronic state is 1-A.
 Alpha  occ. eigenvalues --  -10.19357 -10.19204 -10.18944 -10.18899 -10.18331
 Alpha  occ. eigenvalues --  -10.18091  -0.84911  -0.75477  -0.72927  -0.60789
 Alpha  occ. eigenvalues --   -0.58563  -0.51716  -0.46224  -0.43963  -0.42528
 Alpha  occ. eigenvalues --   -0.40461  -0.36656  -0.33354  -0.32715  -0.25817
 Alpha  occ. eigenvalues --   -0.23169
 Alpha virt. eigenvalues --   -0.01680   0.01152   0.09023   0.13076   0.13754
 Alpha virt. eigenvalues --    0.15635   0.17529   0.18363   0.19083   0.27061
 Alpha virt. eigenvalues --    0.30503   0.31776   0.33982   0.45873   0.51231

 Mulliken charges:
               1
     1  C   -0.065589
     2  C   -0.087985
     3  C   -0.118700
     4  C   -0.083651
     5  C   -0.060941
     6  C   -0.100888
     7  H    0.087910
     8  H    0.076103
     9  H    0.080507
    10  H    0.089549
    11  H    0.096589
    12  H    0.087098
 Sum of Mulliken charges =  -0.00000

 Dipole moment (field-independent basis, Debye):
    X=             -0.0822    Y=             -0.1167    Z=              0.0327  Tot=              0.1464
 Quadrupole moment (field-independent basis, Debye-Ang):
   XX=            -31.3346   YY=            -32.4547   ZZ=            -38.1596
   XY=              0.1977   XZ=              0.4825   YZ=              0.8048

 Normal termination of Gaussian 16 at Fri Nov 10 17:59:09 2023.
