 Gaussian 16, Revision B.01,
 Gaussian 16:  EM64L-G16RevB.01 20-Dec-2017

 ---------------------------------
 # TD=(NStates=1) B3LYP/6-31G(d,p)
 ---------------------------------

 -------
 ABSSPCT
 -------
 Symbolic Z-matrix:
 Charge =  0 Multiplicity = 1

                         Standard orientation:
 ---------------------------------------------------------------------
 Center     Atomic      Atomic             Coordinates (Angstroms)
 Number     Number       Type             X           Y           Z
 ---------------------------------------------------------------------
      1          6           0        1.455899   -0.127904   -0.003998
      2          6           0        0.759760    1.129661   -0.112397
      3          6           0       -0.657623    1.234508    0.070906
      4          6           0       -1.413224    0.070797   -0.049993
      5          6           0       -0.794829   -1.139276   -0.003110
      6          6           0        0.609982   -1.219204    0.108068
      7          1           0        2.528618   -0.274459   -0.087355
      8          1           0        1.100005   -2.001525    0.003181
      9          1           0       -1.537146   -2.098628   -0.110388
     10          1           0       -2.409856    0.255048   -0.195626
     11          1           0       -0.930602    2.414191    0.383216
     12          1           0        1.489196    2.013889   -0.049886
 ---------------------------------------------------------------------

 SCF Done:  E(RB3LYP) =  -232.176359328     A.U. after   13 cycles

 Excitation energies and oscillator strengths:

 Excited State   1:      Singlet-A      5.2630 eV  235.58 nm  f=0.0010  <S**2>=0.000
      20 -> 22        -0.45765
      20 -> 23        -0.11425
      21 -> 22        -0.13656
      21 -> 23         0.50825
 This state for optimization and/or second-order correction.
 Total Energy, E(TD-HF/TD-DFT) =  -231.982947110
 Copying the excited state density for this state as the 1-particle RhoCI density.

 The electronic state is 1-A.
 Alpha  occ. eigenvalues --  -10.20755 -10.20257 -10.19732 -10.19133 -10.18471
 Alpha  occ. eigenvalues --  -10.17245  -0.84821  -0.75351  -0.72823  -0.60066
 Alpha  occ. eigenvalues --   -0.59686  -0.51405  -0.46208  -0.43898  -0.42179
 Alpha  occ. eigenvalues --   -0.39579  -0.36209  -0.33927  -0.32393  -0.25001
 Alpha  occ. eigenvalues --   -0.23910
 Alpha virt. eigenvalues --   -0.00762  -0.00165   0.07118   0.11446   0.13188
 Alpha virt. eigenvalues --    0.15033   0.16342   0.17629   0.20891   0.28473
 Alpha virt. eigenvalues --    0.30161   0.31245   0.32078   0.46074   0.49906

 Mulliken charges:
               1
     1  C   -0.090381
     2  C   -0.100132
     3  C   -0.087944
     4  C   -0.079685
     5  C   -0.081397
     6  C   -0.054712
     7  H    0.096272
     8  H    0.062815
     9  H    0.080341
    10  H    0.092385
    11  H    0.088011
    12  H    0.074426
 Sum of Mulliken charges =  -0.00000

 Dipole moment (field-independent basis, Debye):
    X=              0.1419    Y=             -0.0610    Z=             -0.0445  Tot=              0.1607
 Quadrupole moment (field-independent basis, Debye-Ang):
   XX=            -31.0295   YY=            -32.5322   ZZ=            -38.5390
   XY=             -0.2492   XZ=              0.0439   YZ=              0.8238

 Normal termination of Gaussian 16 at Fri Nov 10 16:13:04 2023.
