 Gaussian 16, Revision B.01,
 Gaussian 16:  EM64L-G16RevB.01 20-Dec-2017

 ---------------------------------
 # TD=(NStates=1) B3LYP/6-31G(d,p)
 ---------------------------------

 -------
 ABSSPCT
 -------
 Symbolic Z-matrix:
 Charge =  0 Multiplicity = 1

                         Standard orientation:
 ---------------------------------------------------------------------
 Center     Atomic      Atomic             Coordinates (Angstroms)
 Number     Number       Type             X           Y           Z
 ---------------------------------------------------------------------
      1          6           0       -0.157113    1.408811    0.002401
      2          6           0        1.070082    0.851617    0.037079
      3          6           0        1.320847   -0.487077   -0.015777
      4          6           0        0.197660   -1.353821   -0.046167
      5          6           0       -1.094289   -0.896882    0.003009
      6          6           0       -1.317082    0.482518   -0.004098
      7          1           0       -0.590184    2.467587   -0.155862
      8          1           0       -2.403298    0.784266   -0.069068
      9          1           0       -1.806095   -1.635968    0.259262
     10          1           0        0.540938   -2.439646    0.009649
     11          1           0        2.370058   -0.739192   -0.059233
     12          1           0        1.767958    1.531957    0.156564
 ---------------------------------------------------------------------

 SCF Done:  E(RB3LYP) =  -232.210391220     A.U. after   13 cycles

 Excitation energies and oscillator strengths:

 Excited State   1:      Singlet-A      5.4479 eV  227.58 nm  f=0.0001  <S**2>=0.000
      20 -> 22         0.49317
      21 -> 23         0.50475
 This state for optimization and/or second-order correction.
 Total Energy, E(TD-HF/TD-DFT) =  -232.010183139
 Copying the excited state density for this state as the 1-particle RhoCI density.

 The electronic state is 1-A.
 Alpha  occ. eigenvalues --  -10.19763 -10.19707 -10.19244 -10.18624 -10.18336
 Alpha  occ. eigenvalues --  -10.17183  -0.84944  -0.75466  -0.72928  -0.60405
 Alpha  occ. eigenvalues --   -0.59555  -0.51678  -0.47135  -0.43452  -0.42182
 Alpha  occ. eigenvalues --   -0.39861  -0.36549  -0.34465  -0.31857  -0.25596
 Alpha  occ. eigenvalues --   -0.23773
 Alpha virt. eigenvalues --   -0.00922   0.00843   0.08901   0.12967   0.14244
 Alpha virt. eigenvalues --    0.16013   0.16474   0.18126   0.19368   0.27825
 Alpha virt. eigenvalues --    0.29945   0.31968   0.33786   0.44657   0.50993

 Mulliken charges:
               1
     1  C   -0.087261
     2  C   -0.071204
     3  C   -0.072105
     4  C   -0.103702
     5  C   -0.064390
     6  C   -0.120104
     7  H    0.096710
     8  H    0.085370
     9  H    0.090723
    10  H    0.079724
    11  H    0.089957
    12  H    0.076284
 Sum of Mulliken charges =  -0.00000

 Dipole moment (field-independent basis, Debye):
    X=              0.0761    Y=              0.0448    Z=              0.0920  Tot=              0.1275
 Quadrupole moment (field-independent basis, Debye-Ang):
   XX=            -31.3311   YY=            -32.0294   ZZ=            -38.4223
   XY=             -0.2511   XZ=             -0.0444   YZ=             -0.5326

 Normal termination of Gaussian 16 at Fri Nov 10 18:26:31 2023.
