 Gaussian 16, Revision B.01,
 Gaussian 16:  EM64L-G16RevB.01 20-Dec-2017

 ---------------------------------
 # TD=(NStates=1) B3LYP/6-31G(d,p)
 ---------------------------------

 -------
 ABSSPCT
 -------
 Symbolic Z-matrix:
 Charge =  0 Multiplicity = 1

                         Standard orientation:
 ---------------------------------------------------------------------
 Center     Atomic      Atomic             Coordinates (Angstroms)
 Number     Number       Type             X           Y           Z
 ---------------------------------------------------------------------
      1          6           0       -1.414242   -0.019897    0.046791
      2          6           0       -0.680445    1.274473   -0.004004
      3          6           0        0.710929    1.122830    0.034000
      4          6           0        1.471754   -0.051232   -0.085367
      5          6           0        0.699028   -1.143100   -0.032549
      6          6           0       -0.768262   -1.156094    0.018688
      7          1           0       -2.641530   -0.151811   -0.130819
      8          1           0       -1.298246   -2.113688   -0.118042
      9          1           0        1.205444   -2.196152    0.263734
     10          1           0        2.654675   -0.001172    0.117872
     11          1           0        1.241256    2.046587    0.033767
     12          1           0       -1.274171    2.254353   -0.031868
 ---------------------------------------------------------------------

 SCF Done:  E(RB3LYP) =  -232.191120119     A.U. after   13 cycles

 Excitation energies and oscillator strengths:

 Excited State   1:      Singlet-A      5.4445 eV  227.72 nm  f=0.0067  <S**2>=0.000
      20 -> 22        -0.41855
      20 -> 23         0.13466
      21 -> 22         0.27968
      21 -> 23         0.47710
 This state for optimization and/or second-order correction.
 Total Energy, E(TD-HF/TD-DFT) =  -231.991037915
 Copying the excited state density for this state as the 1-particle RhoCI density.

 The electronic state is 1-A.
 Alpha  occ. eigenvalues --  -10.20698 -10.20280 -10.20216 -10.20067 -10.19114
 Alpha  occ. eigenvalues --  -10.18794  -0.85071  -0.75261  -0.72880  -0.59683
 Alpha  occ. eigenvalues --   -0.58046  -0.50600  -0.44590  -0.43406  -0.41809
 Alpha  occ. eigenvalues --   -0.40510  -0.36375  -0.32836  -0.32254  -0.26221
 Alpha  occ. eigenvalues --   -0.23844
 Alpha virt. eigenvalues --   -0.01185   0.00593   0.06292   0.10116   0.12808
 Alpha virt. eigenvalues --    0.13903   0.16321   0.17448   0.18118   0.26560
 Alpha virt. eigenvalues --    0.27908   0.33300   0.33811   0.43388   0.48974

 Mulliken charges:
               1
     1  C   -0.087026
     2  C   -0.093272
     3  C   -0.097721
     4  C   -0.067503
     5  C   -0.098046
     6  C   -0.060801
     7  H    0.066512
     8  H    0.093104
     9  H    0.067060
    10  H    0.098060
    11  H    0.078738
    12  H    0.100896
 Sum of Mulliken charges =  -0.00000

 Dipole moment (field-independent basis, Debye):
    X=              0.0681    Y=              0.0900    Z=              0.0636  Tot=              0.1296
 Quadrupole moment (field-independent basis, Debye-Ang):
   XX=            -31.6977   YY=            -32.3313   ZZ=            -38.8140
   XY=              0.3247   XZ=              0.9620   YZ=             -0.1781

 Normal termination of Gaussian 16 at Fri Nov 10 16:03:48 2023.
