 Gaussian 16, Revision B.01,
 Gaussian 16:  EM64L-G16RevB.01 20-Dec-2017

 ---------------------------------
 # TD=(NStates=1) B3LYP/6-31G(d,p)
 ---------------------------------

 -------
 ABSSPCT
 -------
 Symbolic Z-matrix:
 Charge =  0 Multiplicity = 1

                         Standard orientation:
 ---------------------------------------------------------------------
 Center     Atomic      Atomic             Coordinates (Angstroms)
 Number     Number       Type             X           Y           Z
 ---------------------------------------------------------------------
      1          6           0       -1.146248    0.805038   -0.004596
      2          6           0       -1.304890   -0.596897   -0.018011
      3          6           0       -0.149562   -1.404582   -0.001623
      4          6           0        1.189627   -0.795062   -0.071277
      5          6           0        1.270188    0.597732   -0.001386
      6          6           0        0.124755    1.377298   -0.018344
      7          1           0       -2.120035    1.489721   -0.089342
      8          1           0        0.113334    2.479549    0.175811
      9          1           0        2.352194    1.080545    0.180628
     10          1           0        2.175347   -1.379846    0.067198
     11          1           0       -0.186540   -2.419190    0.184138
     12          1           0       -2.237525   -1.151934    0.172986
 ---------------------------------------------------------------------

 SCF Done:  E(RB3LYP) =  -232.225286206     A.U. after   12 cycles

 Excitation energies and oscillator strengths:

 Excited State   1:      Singlet-A      5.3375 eV  232.29 nm  f=0.0003  <S**2>=0.000
      20 -> 22         0.49627
      21 -> 22         0.12551
      21 -> 23        -0.47944
 This state for optimization and/or second-order correction.
 Total Energy, E(TD-HF/TD-DFT) =  -232.029135131
 Copying the excited state density for this state as the 1-particle RhoCI density.

 The electronic state is 1-A.
 Alpha  occ. eigenvalues --  -10.20307 -10.20283 -10.20117 -10.19547 -10.19357
 Alpha  occ. eigenvalues --  -10.19299  -0.84201  -0.74031  -0.73206  -0.59735
 Alpha  occ. eigenvalues --   -0.58753  -0.50704  -0.45472  -0.43273  -0.41339
 Alpha  occ. eigenvalues --   -0.40560  -0.36040  -0.33678  -0.33019  -0.25053
 Alpha  occ. eigenvalues --   -0.24289
 Alpha virt. eigenvalues --   -0.00925   0.00031   0.07103   0.11823   0.13570
 Alpha virt. eigenvalues --    0.14525   0.16328   0.17161   0.18757   0.28016
 Alpha virt. eigenvalues --    0.29566   0.30618   0.31933   0.46473   0.50747

 Mulliken charges:
               1
     1  C   -0.095015
     2  C   -0.081421
     3  C   -0.091979
     4  C   -0.095883
     5  C   -0.081087
     6  C   -0.077292
     7  H    0.082334
     8  H    0.088929
     9  H    0.081284
    10  H    0.089429
    11  H    0.088847
    12  H    0.091855
 Sum of Mulliken charges =  -0.00000

 Dipole moment (field-independent basis, Debye):
    X=             -0.0128    Y=             -0.1196    Z=              0.4254  Tot=              0.4421
 Quadrupole moment (field-independent basis, Debye-Ang):
   XX=            -31.7046   YY=            -31.8402   ZZ=            -38.8543
   XY=             -0.1007   XZ=              0.2661   YZ=             -0.2575

 Normal termination of Gaussian 16 at Fri Nov 10 17:57:50 2023.
