 Gaussian 16, Revision B.01,
 Gaussian 16:  EM64L-G16RevB.01 20-Dec-2017

 ---------------------------------
 # TD=(NStates=1) B3LYP/6-31G(d,p)
 ---------------------------------

 -------
 ABSSPCT
 -------
 Symbolic Z-matrix:
 Charge =  0 Multiplicity = 1

                         Standard orientation:
 ---------------------------------------------------------------------
 Center     Atomic      Atomic             Coordinates (Angstroms)
 Number     Number       Type             X           Y           Z
 ---------------------------------------------------------------------
      1          6           0       -1.414059   -0.212541    0.049502
      2          6           0       -0.875967    1.062988    0.055750
      3          6           0        0.517593    1.307469   -0.012994
      4          6           0        1.472440    0.223895   -0.029725
      5          6           0        0.878759   -1.085762   -0.002118
      6          6           0       -0.535332   -1.304153   -0.063494
      7          1           0       -2.459254   -0.197388   -0.104329
      8          1           0       -0.876332   -2.380102   -0.046075
      9          1           0        1.427789   -1.979380    0.230864
     10          1           0        2.498909    0.253333    0.090773
     11          1           0        0.772709    2.491550   -0.116120
     12          1           0       -1.624423    1.860607   -0.036638
 ---------------------------------------------------------------------

 SCF Done:  E(RB3LYP) =  -232.223993596     A.U. after   13 cycles

 Excitation energies and oscillator strengths:

 Excited State   1:      Singlet-A      5.2077 eV  238.08 nm  f=0.0028  <S**2>=0.000
      20 -> 22         0.22391
      20 -> 23         0.40024
      21 -> 22         0.48772
      21 -> 23        -0.22678
 This state for optimization and/or second-order correction.
 Total Energy, E(TD-HF/TD-DFT) =  -232.032615753
 Copying the excited state density for this state as the 1-particle RhoCI density.

 The electronic state is 1-A.
 Alpha  occ. eigenvalues --  -10.21055 -10.19976 -10.19739 -10.19447 -10.18920
 Alpha  occ. eigenvalues --  -10.18676  -0.83838  -0.74341  -0.72843  -0.60536
 Alpha  occ. eigenvalues --   -0.58721  -0.50960  -0.46368  -0.43704  -0.41822
 Alpha  occ. eigenvalues --   -0.40060  -0.35487  -0.34397  -0.32956  -0.24796
 Alpha  occ. eigenvalues --   -0.24091
 Alpha virt. eigenvalues --   -0.00969  -0.00369   0.08261   0.12776   0.14067
 Alpha virt. eigenvalues --    0.14430   0.15997   0.18613   0.19697   0.27535
 Alpha virt. eigenvalues --    0.29627   0.29997   0.31380   0.47263   0.50412

 Mulliken charges:
               1
     1  C   -0.070167
     2  C   -0.079836
     3  C   -0.094718
     4  C   -0.084297
     5  C   -0.096178
     6  C   -0.094942
     7  H    0.087705
     8  H    0.084464
     9  H    0.089094
    10  H    0.096402
    11  H    0.076615
    12  H    0.085859
 Sum of Mulliken charges =  -0.00000

 Dipole moment (field-independent basis, Debye):
    X=             -0.0743    Y=             -0.0825    Z=              0.0318  Tot=              0.1155
 Quadrupole moment (field-independent basis, Debye-Ang):
   XX=            -31.3131   YY=            -31.9756   ZZ=            -38.8057
   XY=             -0.7353   XZ=              0.7345   YZ=             -0.5752

 Normal termination of Gaussian 16 at Fri Nov 10 16:01:58 2023.
