 Gaussian 16, Revision B.01,
 Gaussian 16:  EM64L-G16RevB.01 20-Dec-2017

 ---------------------------------
 # TD=(NStates=1) B3LYP/6-31G(d,p)
 ---------------------------------

 -------
 ABSSPCT
 -------
 Symbolic Z-matrix:
 Charge =  0 Multiplicity = 1

                         Standard orientation:
 ---------------------------------------------------------------------
 Center     Atomic      Atomic             Coordinates (Angstroms)
 Number     Number       Type             X           Y           Z
 ---------------------------------------------------------------------
      1          6           0        1.372648   -0.404622    0.015341
      2          6           0        1.030573    0.955854   -0.005293
      3          6           0       -0.328336    1.353824   -0.048789
      4          6           0       -1.342788    0.413728    0.006525
      5          6           0       -1.025637   -0.948043   -0.013291
      6          6           0        0.330948   -1.330066    0.024793
      7          1           0        2.406601   -0.679304   -0.055641
      8          1           0        0.587363   -2.381421   -0.061270
      9          1           0       -1.848325   -1.716450   -0.014432
     10          1           0       -2.539633    0.447763    0.095576
     11          1           0       -0.719466    2.487969    0.070763
     12          1           0        1.889015    1.597391    0.089295
 ---------------------------------------------------------------------

 SCF Done:  E(RB3LYP) =  -232.226034560     A.U. after   12 cycles

 Excitation energies and oscillator strengths:

 Excited State   1:      Singlet-A      5.4655 eV  226.85 nm  f=0.0001  <S**2>=0.000
      20 -> 22        -0.49417
      21 -> 23         0.50399
 This state for optimization and/or second-order correction.
 Total Energy, E(TD-HF/TD-DFT) =  -232.025180527
 Copying the excited state density for this state as the 1-particle RhoCI density.

 The electronic state is 1-A.
 Alpha  occ. eigenvalues --  -10.20642 -10.19957 -10.19416 -10.19179 -10.18863
 Alpha  occ. eigenvalues --  -10.18799  -0.84661  -0.74439  -0.73348  -0.60121
 Alpha  occ. eigenvalues --   -0.58876  -0.50969  -0.45210  -0.44464  -0.41138
 Alpha  occ. eigenvalues --   -0.40416  -0.35954  -0.34579  -0.32097  -0.25097
 Alpha  occ. eigenvalues --   -0.24490
 Alpha virt. eigenvalues --   -0.00343   0.00160   0.06861   0.12558   0.13165
 Alpha virt. eigenvalues --    0.14847   0.16098   0.18202   0.19124   0.28817
 Alpha virt. eigenvalues --    0.30086   0.30365   0.32852   0.46344   0.52336

 Mulliken charges:
               1
     1  C   -0.078619
     2  C   -0.089149
     3  C   -0.106165
     4  C   -0.070695
     5  C   -0.085824
     6  C   -0.085048
     7  H    0.091163
     8  H    0.078844
     9  H    0.087009
    10  H    0.087215
    11  H    0.081614
    12  H    0.089655
 Sum of Mulliken charges =  -0.00000

 Dipole moment (field-independent basis, Debye):
    X=              0.1038    Y=             -0.2105    Z=              0.0733  Tot=              0.2459
 Quadrupole moment (field-independent basis, Debye-Ang):
   XX=            -30.7659   YY=            -32.7350   ZZ=            -38.8013
   XY=              0.4114   XZ=             -0.2174   YZ=              0.4599

 Normal termination of Gaussian 16 at Fri Nov 10 17:48:09 2023.
