 Gaussian 16, Revision B.01,
 Gaussian 16:  EM64L-G16RevB.01 20-Dec-2017

 ---------------------------------
 # TD=(NStates=1) B3LYP/6-31G(d,p)
 ---------------------------------

 -------
 ABSSPCT
 -------
 Symbolic Z-matrix:
 Charge =  0 Multiplicity = 1

                         Standard orientation:
 ---------------------------------------------------------------------
 Center     Atomic      Atomic             Coordinates (Angstroms)
 Number     Number       Type             X           Y           Z
 ---------------------------------------------------------------------
      1          6           0       -1.374292    0.244343    0.045935
      2          6           0       -0.450523    1.311637   -0.003009
      3          6           0        0.872999    1.076935    0.041967
      4          6           0        1.404282   -0.274308   -0.061911
      5          6           0        0.437116   -1.294319    0.068198
      6          6           0       -0.929718   -1.053739   -0.099831
      7          1           0       -2.326822    0.521377    0.304023
      8          1           0       -1.761749   -1.797910   -0.202653
      9          1           0        0.913756   -2.305172    0.173375
     10          1           0        2.443094   -0.538879    0.065178
     11          1           0        1.856510    1.752324   -0.104059
     12          1           0       -0.883973    2.304970   -0.183962
 ---------------------------------------------------------------------

 SCF Done:  E(RB3LYP) =  -232.208981384     A.U. after   13 cycles

 Excitation energies and oscillator strengths:

 Excited State   1:      Singlet-A      5.2013 eV  238.37 nm  f=0.0028  <S**2>=0.000
      20 -> 22         0.48394
      20 -> 23        -0.15594
      21 -> 22        -0.25603
      21 -> 23        -0.41803
 This state for optimization and/or second-order correction.
 Total Energy, E(TD-HF/TD-DFT) =  -232.017837400
 Copying the excited state density for this state as the 1-particle RhoCI density.

 The electronic state is 1-A.
 Alpha  occ. eigenvalues --  -10.19880 -10.19502 -10.19440 -10.19095 -10.18747
 Alpha  occ. eigenvalues --  -10.18392  -0.84858  -0.74129  -0.73945  -0.60073
 Alpha  occ. eigenvalues --   -0.59346  -0.51070  -0.46203  -0.44659  -0.41178
 Alpha  occ. eigenvalues --   -0.40062  -0.37325  -0.34654  -0.31251  -0.24732
 Alpha  occ. eigenvalues --   -0.23894
 Alpha virt. eigenvalues --   -0.01173   0.00276   0.08137   0.12100   0.13630
 Alpha virt. eigenvalues --    0.15225   0.15984   0.18662   0.19400   0.27678
 Alpha virt. eigenvalues --    0.29627   0.31684   0.34612   0.45594   0.48747

 Mulliken charges:
               1
     1  C   -0.080449
     2  C   -0.091218
     3  C   -0.080298
     4  C   -0.095474
     5  C   -0.089235
     6  C   -0.081191
     7  H    0.092305
     8  H    0.088581
     9  H    0.078960
    10  H    0.093186
    11  H    0.075525
    12  H    0.089306
 Sum of Mulliken charges =  -0.00000

 Dipole moment (field-independent basis, Debye):
    X=             -0.1529    Y=             -0.1144    Z=              0.0554  Tot=              0.1988
 Quadrupole moment (field-independent basis, Debye-Ang):
   XX=            -30.7009   YY=            -33.1156   ZZ=            -38.4697
   XY=             -0.6359   XZ=             -0.0638   YZ=             -0.3831

 Normal termination of Gaussian 16 at Fri Nov 10 17:38:53 2023.
