 Gaussian 16, Revision B.01,
 Gaussian 16:  EM64L-G16RevB.01 20-Dec-2017

 ---------------------------------
 # TD=(NStates=1) B3LYP/6-31G(d,p)
 ---------------------------------

 -------
 ABSSPCT
 -------
 Symbolic Z-matrix:
 Charge =  0 Multiplicity = 1

                         Standard orientation:
 ---------------------------------------------------------------------
 Center     Atomic      Atomic             Coordinates (Angstroms)
 Number     Number       Type             X           Y           Z
 ---------------------------------------------------------------------
      1          6           0        1.403472    0.263733   -0.010980
      2          6           0        0.971769   -1.062380   -0.027643
      3          6           0       -0.519766   -1.270014    0.030114
      4          6           0       -1.370293   -0.272113   -0.049654
      5          6           0       -0.984964    1.015624   -0.021302
      6          6           0        0.416607    1.316815    0.057972
      7          1           0        2.436158    0.707575   -0.119791
      8          1           0        0.863757    2.264204    0.035762
      9          1           0       -1.591636    2.012898    0.045696
     10          1           0       -2.296946   -0.695065   -0.023035
     11          1           0       -0.643170   -2.422928    0.160138
     12          1           0        1.730883   -1.816680    0.030194
 ---------------------------------------------------------------------

 SCF Done:  E(RB3LYP) =  -232.198253084     A.U. after   13 cycles

 Excitation energies and oscillator strengths:

 Excited State   1:      Singlet-A      5.4229 eV  228.63 nm  f=0.0009  <S**2>=0.000
      20 -> 22        -0.48966
      21 -> 22        -0.10070
      21 -> 23         0.49704
 This state for optimization and/or second-order correction.
 Total Energy, E(TD-HF/TD-DFT) =  -231.998966638
 Copying the excited state density for this state as the 1-particle RhoCI density.

 The electronic state is 1-A.
 Alpha  occ. eigenvalues --  -10.20069 -10.19832 -10.19386 -10.19262 -10.18747
 Alpha  occ. eigenvalues --  -10.17784  -0.84821  -0.75248  -0.72718  -0.60953
 Alpha  occ. eigenvalues --   -0.58610  -0.51683  -0.46052  -0.44675  -0.41948
 Alpha  occ. eigenvalues --   -0.39887  -0.36112  -0.33948  -0.31516  -0.25718
 Alpha  occ. eigenvalues --   -0.23549
 Alpha virt. eigenvalues --   -0.01209   0.00987   0.08205   0.12738   0.13548
 Alpha virt. eigenvalues --    0.15677   0.16517   0.17413   0.19836   0.26089
 Alpha virt. eigenvalues --    0.29341   0.31582   0.32793   0.46437   0.51588

 Mulliken charges:
               1
     1  C   -0.076137
     2  C   -0.108788
     3  C   -0.100160
     4  C   -0.055987
     5  C   -0.093511
     6  C   -0.090354
     7  H    0.082639
     8  H    0.083131
     9  H    0.089199
    10  H    0.088829
    11  H    0.090723
    12  H    0.090416
 Sum of Mulliken charges =  -0.00000

 Dipole moment (field-independent basis, Debye):
    X=              0.1264    Y=             -0.0025    Z=              0.0674  Tot=              0.1433
 Quadrupole moment (field-independent basis, Debye-Ang):
   XX=            -32.1099   YY=            -31.1718   ZZ=            -38.6579
   XY=              0.4099   XZ=             -0.2220   YZ=             -0.2811

 Normal termination of Gaussian 16 at Fri Nov 10 18:39:49 2023.
