 Gaussian 16, Revision B.01,
 Gaussian 16:  EM64L-G16RevB.01 20-Dec-2017

 ---------------------------------
 # TD=(NStates=1) B3LYP/6-31G(d,p)
 ---------------------------------

 -------
 ABSSPCT
 -------
 Symbolic Z-matrix:
 Charge =  0 Multiplicity = 1

                         Standard orientation:
 ---------------------------------------------------------------------
 Center     Atomic      Atomic             Coordinates (Angstroms)
 Number     Number       Type             X           Y           Z
 ---------------------------------------------------------------------
      1          6           0       -1.154082   -0.749576    0.089966
      2          6           0       -1.232107    0.579645    0.016367
      3          6           0       -0.155210    1.352733   -0.102235
      4          6           0        1.150895    0.784919    0.063153
      5          6           0        1.268011   -0.644123   -0.021843
      6          6           0        0.095774   -1.310977   -0.072796
      7          1           0       -2.054137   -1.309411    0.234849
      8          1           0        0.076444   -2.544950   -0.125927
      9          1           0        2.412971   -0.955235   -0.023497
     10          1           0        2.017134    1.291113    0.264854
     11          1           0       -0.066755    2.527067    0.009896
     12          1           0       -2.225350    0.915689   -0.195847
 ---------------------------------------------------------------------

 SCF Done:  E(RB3LYP) =  -232.195926743     A.U. after   13 cycles

 Excitation energies and oscillator strengths:

 Excited State   1:      Singlet-A      5.5443 eV  223.62 nm  f=0.0007  <S**2>=0.000
      20 -> 22         0.50619
      21 -> 22        -0.11136
      21 -> 23         0.47561
 This state for optimization and/or second-order correction.
 Total Energy, E(TD-HF/TD-DFT) =  -231.992175924
 Copying the excited state density for this state as the 1-particle RhoCI density.

 The electronic state is 1-A.
 Alpha  occ. eigenvalues --  -10.19856 -10.19777 -10.19320 -10.18659 -10.18083
 Alpha  occ. eigenvalues --  -10.17633  -0.86229  -0.75314  -0.73714  -0.60665
 Alpha  occ. eigenvalues --   -0.59210  -0.51189  -0.45981  -0.45176  -0.41284
 Alpha  occ. eigenvalues --   -0.39202  -0.37959  -0.34904  -0.30649  -0.25658
 Alpha  occ. eigenvalues --   -0.24291
 Alpha virt. eigenvalues --   -0.00749   0.00908   0.06942   0.11755   0.12983
 Alpha virt. eigenvalues --    0.15650   0.16310   0.19061   0.19798   0.28219
 Alpha virt. eigenvalues --    0.30177   0.31531   0.36158   0.45688   0.51183

 Mulliken charges:
               1
     1  C   -0.060236
     2  C   -0.076356
     3  C   -0.086843
     4  C   -0.095167
     5  C   -0.072334
     6  C   -0.097722
     7  H    0.091711
     8  H    0.056725
     9  H    0.092377
    10  H    0.085454
    11  H    0.077653
    12  H    0.084737
 Sum of Mulliken charges =  -0.00000

 Dipole moment (field-independent basis, Debye):
    X=              0.0392    Y=              0.0813    Z=              0.1369  Tot=              0.1640
 Quadrupole moment (field-independent basis, Debye-Ang):
   XX=            -30.6928   YY=            -33.4409   ZZ=            -38.3377
   XY=              0.9702   XZ=              0.3829   YZ=              0.1704

 Normal termination of Gaussian 16 at Fri Nov 10 18:48:11 2023.
