 Gaussian 16, Revision B.01,
 Gaussian 16:  EM64L-G16RevB.01 20-Dec-2017

 ---------------------------------
 # TD=(NStates=1) B3LYP/6-31G(d,p)
 ---------------------------------

 -------
 ABSSPCT
 -------
 Symbolic Z-matrix:
 Charge =  0 Multiplicity = 1

                         Standard orientation:
 ---------------------------------------------------------------------
 Center     Atomic      Atomic             Coordinates (Angstroms)
 Number     Number       Type             X           Y           Z
 ---------------------------------------------------------------------
      1          6           0       -0.716450    1.203179   -0.036217
      2          6           0       -1.389169   -0.019739    0.016705
      3          6           0       -0.688245   -1.193415   -0.063464
      4          6           0        0.691687   -1.149012    0.029709
      5          6           0        1.384977    0.019665   -0.032956
      6          6           0        0.665969    1.181361   -0.022997
      7          1           0       -1.228624    2.068665   -0.008994
      8          1           0        1.344387    2.191829    0.360122
      9          1           0        2.530480   -0.204069   -0.122207
     10          1           0        1.556763   -2.050321    0.178712
     11          1           0       -1.379750   -2.125159    0.108204
     12          1           0       -2.515867   -0.133174    0.139489
 ---------------------------------------------------------------------

 SCF Done:  E(RB3LYP) =  -232.183543016     A.U. after   13 cycles

 Excitation energies and oscillator strengths:

 Excited State   1:      Singlet-A      5.5305 eV  224.18 nm  f=0.0002  <S**2>=0.000
      20 -> 22         0.48284
      20 -> 23         0.13884
      21 -> 22        -0.16368
      21 -> 23         0.46918
 This state for optimization and/or second-order correction.
 Total Energy, E(TD-HF/TD-DFT) =  -231.980299822
 Copying the excited state density for this state as the 1-particle RhoCI density.

 The electronic state is 1-A.
 Alpha  occ. eigenvalues --  -10.20442 -10.20101 -10.19588 -10.19497 -10.19107
 Alpha  occ. eigenvalues --  -10.18500  -0.86205  -0.75052  -0.74133  -0.60162
 Alpha  occ. eigenvalues --   -0.58935  -0.51353  -0.45336  -0.43132  -0.41482
 Alpha  occ. eigenvalues --   -0.39847  -0.37261  -0.33980  -0.31718  -0.25272
 Alpha  occ. eigenvalues --   -0.24910
 Alpha virt. eigenvalues --   -0.00382   0.00216   0.04833   0.10251   0.11058
 Alpha virt. eigenvalues --    0.15953   0.16793   0.17255   0.18931   0.28958
 Alpha virt. eigenvalues --    0.29969   0.32652   0.34614   0.45443   0.51109

 Mulliken charges:
               1
     1  C   -0.067577
     2  C   -0.086110
     3  C   -0.094195
     4  C   -0.069055
     5  C   -0.064386
     6  C   -0.098542
     7  H    0.085804
     8  H    0.065051
     9  H    0.092737
    10  H    0.065733
    11  H    0.082003
    12  H    0.088537
 Sum of Mulliken charges =  -0.00000

 Dipole moment (field-independent basis, Debye):
    X=             -0.1535    Y=              0.0177    Z=              0.3218  Tot=              0.3570
 Quadrupole moment (field-independent basis, Debye-Ang):
   XX=            -31.1443   YY=            -33.5665   ZZ=            -38.5624
   XY=             -0.4721   XZ=             -0.1250   YZ=              0.1208

 Normal termination of Gaussian 16 at Fri Nov 10 18:14:23 2023.
