 Gaussian 16, Revision B.01,
 Gaussian 16:  EM64L-G16RevB.01 20-Dec-2017

 ---------------------------------
 # TD=(NStates=1) B3LYP/6-31G(d,p)
 ---------------------------------

 -------
 ABSSPCT
 -------
 Symbolic Z-matrix:
 Charge =  0 Multiplicity = 1

                         Standard orientation:
 ---------------------------------------------------------------------
 Center     Atomic      Atomic             Coordinates (Angstroms)
 Number     Number       Type             X           Y           Z
 ---------------------------------------------------------------------
      1          6           0        0.682910   -1.132654    0.037786
      2          6           0       -0.691323   -1.203712   -0.073767
      3          6           0       -1.401747    0.047216   -0.058158
      4          6           0       -0.741416    1.190845    0.015262
      5          6           0        0.713160    1.176293    0.051088
      6          6           0        1.409602   -0.044703    0.010453
      7          1           0        1.228995   -2.093971   -0.079620
      8          1           0        2.585454   -0.029814   -0.103938
      9          1           0        1.270669    2.139640   -0.101124
     10          1           0       -1.195292    2.188324   -0.038174
     11          1           0       -2.489433   -0.225130    0.170870
     12          1           0       -1.227509   -2.178763    0.256000
 ---------------------------------------------------------------------

 SCF Done:  E(RB3LYP) =  -232.209261905     A.U. after   13 cycles

 Excitation energies and oscillator strengths:

 Excited State   1:      Singlet-A      5.4700 eV  226.66 nm  f=0.0009  <S**2>=0.000
      20 -> 22         0.52606
      21 -> 23        -0.46626
 This state for optimization and/or second-order correction.
 Total Energy, E(TD-HF/TD-DFT) =  -232.008244759
 Copying the excited state density for this state as the 1-particle RhoCI density.

 The electronic state is 1-A.
 Alpha  occ. eigenvalues --  -10.19930 -10.19387 -10.19294 -10.19254 -10.19201
 Alpha  occ. eigenvalues --  -10.17971  -0.85661  -0.75596  -0.73025  -0.60165
 Alpha  occ. eigenvalues --   -0.58829  -0.51200  -0.45211  -0.44076  -0.41422
 Alpha  occ. eigenvalues --   -0.40377  -0.36319  -0.34998  -0.31402  -0.26151
 Alpha  occ. eigenvalues --   -0.23884
 Alpha virt. eigenvalues --   -0.01694   0.01192   0.07265   0.11690   0.13412
 Alpha virt. eigenvalues --    0.15193   0.17120   0.18209   0.18759   0.26923
 Alpha virt. eigenvalues --    0.30582   0.31877   0.34972   0.45633   0.51253

 Mulliken charges:
               1
     1  C   -0.072599
     2  C   -0.107171
     3  C   -0.081674
     4  C   -0.079789
     5  C   -0.109928
     6  C   -0.060596
     7  H    0.072838
     8  H    0.087471
     9  H    0.085787
    10  H    0.089010
    11  H    0.087075
    12  H    0.089576
 Sum of Mulliken charges =  -0.00000

 Dipole moment (field-independent basis, Debye):
    X=              0.1228    Y=              0.0697    Z=              0.0781  Tot=              0.1613
 Quadrupole moment (field-independent basis, Debye-Ang):
   XX=            -32.0375   YY=            -32.1301   ZZ=            -38.4754
   XY=              0.5706   XZ=             -0.9809   YZ=             -0.6829

 Normal termination of Gaussian 16 at Fri Nov 10 18:38:07 2023.
