 Gaussian 16, Revision B.01,
 Gaussian 16:  EM64L-G16RevB.01 20-Dec-2017

 ---------------------------------
 # TD=(NStates=1) B3LYP/6-31G(d,p)
 ---------------------------------

 -------
 ABSSPCT
 -------
 Symbolic Z-matrix:
 Charge =  0 Multiplicity = 1

                         Standard orientation:
 ---------------------------------------------------------------------
 Center     Atomic      Atomic             Coordinates (Angstroms)
 Number     Number       Type             X           Y           Z
 ---------------------------------------------------------------------
      1          6           0        0.017919   -1.368134    0.021328
      2          6           0       -1.246347   -0.711400   -0.044487
      3          6           0       -1.240068    0.692620    0.034573
      4          6           0        0.003812    1.379397   -0.041760
      5          6           0        1.157421    0.632471   -0.002572
      6          6           0        1.262817   -0.699553   -0.023799
      7          1           0       -0.166538   -2.366266    0.255120
      8          1           0        2.437415   -1.035404   -0.111223
      9          1           0        2.184899    1.324547    0.135607
     10          1           0        0.140118    2.363046    0.114983
     11          1           0       -2.118406    1.289928    0.030211
     12          1           0       -2.210809   -1.128255   -0.084401
 ---------------------------------------------------------------------

 SCF Done:  E(RB3LYP) =  -232.196073941     A.U. after   13 cycles

 Excitation energies and oscillator strengths:

 Excited State   1:      Singlet-A      5.3790 eV  230.50 nm  f=0.0022  <S**2>=0.000
      20 -> 22         0.46483
      20 -> 23        -0.15938
      21 -> 22        -0.25349
      21 -> 23        -0.44005
 This state for optimization and/or second-order correction.
 Total Energy, E(TD-HF/TD-DFT) =  -231.998398430
 Copying the excited state density for this state as the 1-particle RhoCI density.

 The electronic state is 1-A.
 Alpha  occ. eigenvalues --  -10.20269 -10.19573 -10.19104 -10.19050 -10.18919
 Alpha  occ. eigenvalues --  -10.17638  -0.85095  -0.74706  -0.73937  -0.61402
 Alpha  occ. eigenvalues --   -0.58553  -0.51734  -0.46067  -0.44023  -0.41386
 Alpha  occ. eigenvalues --   -0.40992  -0.36662  -0.33203  -0.32736  -0.25202
 Alpha  occ. eigenvalues --   -0.24115
 Alpha virt. eigenvalues --   -0.00956   0.00568   0.06345   0.12906   0.13575
 Alpha virt. eigenvalues --    0.15352   0.16900   0.18608   0.20183   0.28869
 Alpha virt. eigenvalues --    0.29101   0.32028   0.33111   0.45695   0.50447

 Mulliken charges:
               1
     1  C   -0.122705
     2  C   -0.079437
     3  C   -0.096129
     4  C   -0.053284
     5  C   -0.074946
     6  C   -0.068118
     7  H    0.089402
     8  H    0.096701
     9  H    0.052873
    10  H    0.079759
    11  H    0.083252
    12  H    0.092632
 Sum of Mulliken charges =  -0.00000

 Dipole moment (field-independent basis, Debye):
    X=             -0.2266    Y=              0.0591    Z=              0.1935  Tot=              0.3038
 Quadrupole moment (field-independent basis, Debye-Ang):
   XX=            -31.1282   YY=            -32.5435   ZZ=            -38.4951
   XY=              0.2791   XZ=              0.0143   YZ=              0.0502

 Normal termination of Gaussian 16 at Fri Nov 10 19:11:08 2023.
