 Gaussian 16, Revision B.01,
 Gaussian 16:  EM64L-G16RevB.01 20-Dec-2017

 ---------------------------------
 # TD=(NStates=1) B3LYP/6-31G(d,p)
 ---------------------------------

 -------
 ABSSPCT
 -------
 Symbolic Z-matrix:
 Charge =  0 Multiplicity = 1

                         Standard orientation:
 ---------------------------------------------------------------------
 Center     Atomic      Atomic             Coordinates (Angstroms)
 Number     Number       Type             X           Y           Z
 ---------------------------------------------------------------------
      1          6           0        0.939254   -1.069968   -0.038497
      2          6           0        1.392000    0.172173    0.016099
      3          6           0        0.475431    1.286929   -0.047432
      4          6           0       -0.855209    1.089494    0.055600
      5          6           0       -1.393792   -0.226856   -0.015684
      6          6           0       -0.485359   -1.273602   -0.015874
      7          1           0        1.521367   -2.004564    0.058239
      8          1           0       -1.110889   -2.175558    0.145925
      9          1           0       -2.604359   -0.400184   -0.077474
     10          1           0       -1.644593    1.800017    0.098228
     11          1           0        0.794905    2.282007   -0.126196
     12          1           0        2.609623    0.629261    0.176000
 ---------------------------------------------------------------------

 SCF Done:  E(RB3LYP) =  -232.193507380     A.U. after   12 cycles

 Excitation energies and oscillator strengths:

 Excited State   1:      Singlet-A      5.5170 eV  224.73 nm  f=0.0016  <S**2>=0.000
      20 -> 22         0.45931
      21 -> 23         0.53509
 This state for optimization and/or second-order correction.
 Total Energy, E(TD-HF/TD-DFT) =  -231.990760632
 Copying the excited state density for this state as the 1-particle RhoCI density.

 The electronic state is 1-A.
 Alpha  occ. eigenvalues --  -10.21095 -10.19744 -10.19708 -10.19246 -10.18592
 Alpha  occ. eigenvalues --  -10.18286  -0.85155  -0.74850  -0.73598  -0.60479
 Alpha  occ. eigenvalues --   -0.58410  -0.51015  -0.44966  -0.44616  -0.42043
 Alpha  occ. eigenvalues --   -0.39601  -0.36208  -0.33324  -0.32375  -0.25607
 Alpha  occ. eigenvalues --   -0.24099
 Alpha virt. eigenvalues --   -0.00271   0.00449   0.05719   0.09621   0.14201
 Alpha virt. eigenvalues --    0.15231   0.16241   0.17541   0.18980   0.27555
 Alpha virt. eigenvalues --    0.29980   0.31360   0.34318   0.46358   0.50869

 Mulliken charges:
               1
     1  C   -0.094678
     2  C   -0.070927
     3  C   -0.087009
     4  C   -0.061341
     5  C   -0.099770
     6  C   -0.091001
     7  H    0.096525
     8  H    0.088856
     9  H    0.080562
    10  H    0.082341
    11  H    0.087267
    12  H    0.069176
 Sum of Mulliken charges =  -0.00000

 Dipole moment (field-independent basis, Debye):
    X=             -0.2403    Y=              0.1039    Z=              0.1584  Tot=              0.3060
 Quadrupole moment (field-independent basis, Debye-Ang):
   XX=            -31.7428   YY=            -32.0960   ZZ=            -38.7061
   XY=              0.2657   XZ=              0.1639   YZ=             -0.3657

 Normal termination of Gaussian 16 at Fri Nov 10 16:45:33 2023.
