 Gaussian 16, Revision B.01,
 Gaussian 16:  EM64L-G16RevB.01 20-Dec-2017

 ---------------------------------
 # TD=(NStates=1) B3LYP/6-31G(d,p)
 ---------------------------------

 -------
 ABSSPCT
 -------
 Symbolic Z-matrix:
 Charge =  0 Multiplicity = 1

                         Standard orientation:
 ---------------------------------------------------------------------
 Center     Atomic      Atomic             Coordinates (Angstroms)
 Number     Number       Type             X           Y           Z
 ---------------------------------------------------------------------
      1          6           0       -1.076727    0.861204   -0.000850
      2          6           0       -1.365223   -0.429030   -0.031841
      3          6           0       -0.267622   -1.325446    0.030545
      4          6           0        1.046727   -0.906090   -0.023086
      5          6           0        1.396314    0.423382   -0.048728
      6          6           0        0.301871    1.378116   -0.000002
      7          1           0       -2.103904    1.676079   -0.052518
      8          1           0        0.439636    2.353630    0.280490
      9          1           0        2.415064    0.732552    0.012795
     10          1           0        1.816713   -1.511561    0.069045
     11          1           0       -0.369117   -2.365880    0.131637
     12          1           0       -2.410429   -0.897641    0.002317
 ---------------------------------------------------------------------

 SCF Done:  E(RB3LYP) =  -232.199865728     A.U. after   13 cycles

 Excitation energies and oscillator strengths:

 Excited State   1:      Singlet-A      5.4098 eV  229.19 nm  f=0.0037  <S**2>=0.000
      20 -> 22         0.47264
      21 -> 22         0.19487
      21 -> 23         0.47904
 This state for optimization and/or second-order correction.
 Total Energy, E(TD-HF/TD-DFT) =  -232.001060508
 Copying the excited state density for this state as the 1-particle RhoCI density.

 The electronic state is 1-A.
 Alpha  occ. eigenvalues --  -10.20825 -10.19529 -10.19259 -10.19198 -10.18454
 Alpha  occ. eigenvalues --  -10.17313  -0.84762  -0.75339  -0.73014  -0.61249
 Alpha  occ. eigenvalues --   -0.58545  -0.51948  -0.46415  -0.43500  -0.42357
 Alpha  occ. eigenvalues --   -0.40240  -0.36285  -0.34675  -0.32178  -0.25894
 Alpha  occ. eigenvalues --   -0.23538
 Alpha virt. eigenvalues --   -0.01394   0.01035   0.06731   0.13203   0.14096
 Alpha virt. eigenvalues --    0.15208   0.17347   0.17903   0.20619   0.28147
 Alpha virt. eigenvalues --    0.29446   0.31170   0.32981   0.46326   0.51836

 Mulliken charges:
               1
     1  C   -0.091622
     2  C   -0.058246
     3  C   -0.090899
     4  C   -0.052278
     5  C   -0.091710
     6  C   -0.100072
     7  H    0.055437
     8  H    0.092239
     9  H    0.090710
    10  H    0.072976
    11  H    0.080782
    12  H    0.092682
 Sum of Mulliken charges =  -0.00000

 Dipole moment (field-independent basis, Debye):
    X=              0.2649    Y=             -0.2554    Z=              0.2955  Tot=              0.4720
 Quadrupole moment (field-independent basis, Debye-Ang):
   XX=            -31.1320   YY=            -32.2448   ZZ=            -38.5134
   XY=              0.3836   XZ=              0.2952   YZ=              0.2067

 Normal termination of Gaussian 16 at Fri Nov 10 17:57:17 2023.
