 Gaussian 16, Revision B.01,
 Gaussian 16:  EM64L-G16RevB.01 20-Dec-2017

 ---------------------------------
 # TD=(NStates=1) B3LYP/6-31G(d,p)
 ---------------------------------

 -------
 ABSSPCT
 -------
 Symbolic Z-matrix:
 Charge =  0 Multiplicity = 1

                         Standard orientation:
 ---------------------------------------------------------------------
 Center     Atomic      Atomic             Coordinates (Angstroms)
 Number     Number       Type             X           Y           Z
 ---------------------------------------------------------------------
      1          6           0        0.695148    1.177057   -0.046206
      2          6           0        1.410658    0.010163    0.021224
      3          6           0        0.697776   -1.184040    0.031645
      4          6           0       -0.657895   -1.219877   -0.014296
      5          6           0       -1.419841   -0.046513   -0.006800
      6          6           0       -0.720519    1.154996   -0.004394
      7          1           0        1.016298    2.361688    0.054851
      8          1           0       -1.300737    1.984449    0.151268
      9          1           0       -2.476495    0.178089    0.021553
     10          1           0       -1.143562   -2.060204   -0.098053
     11          1           0        1.164778   -1.894643    0.081276
     12          1           0        2.707753    0.079907   -0.097933
 ---------------------------------------------------------------------

 SCF Done:  E(RB3LYP) =  -232.134909126     A.U. after   13 cycles

 Excitation energies and oscillator strengths:

 Excited State   1:      Singlet-A      5.5598 eV  223.00 nm  f=0.0002  <S**2>=0.000
      20 -> 22         0.17568
      20 -> 23         0.45025
      21 -> 22         0.48621
      21 -> 23        -0.17171
 This state for optimization and/or second-order correction.
 Total Energy, E(TD-HF/TD-DFT) =  -231.930590480
 Copying the excited state density for this state as the 1-particle RhoCI density.

 The electronic state is 1-A.
 Alpha  occ. eigenvalues --  -10.20745 -10.19918 -10.18411 -10.17704 -10.17675
 Alpha  occ. eigenvalues --  -10.16546  -0.85599  -0.75599  -0.74219  -0.62127
 Alpha  occ. eigenvalues --   -0.59732  -0.52308  -0.46758  -0.44851  -0.41657
 Alpha  occ. eigenvalues --   -0.40604  -0.36742  -0.34519  -0.31858  -0.25040
 Alpha  occ. eigenvalues --   -0.24820
 Alpha virt. eigenvalues --    0.00036   0.00245   0.06651   0.11666   0.13330
 Alpha virt. eigenvalues --    0.16216   0.17597   0.20616   0.21086   0.29748
 Alpha virt. eigenvalues --    0.30674   0.31214   0.33899   0.46709   0.52253

 Mulliken charges:
               1
     1  C   -0.073667
     2  C   -0.105308
     3  C    0.009714
     4  C   -0.075862
     5  C   -0.080258
     6  C   -0.079278
     7  H    0.072838
     8  H    0.078643
     9  H    0.087037
    10  H    0.072620
    11  H    0.023121
    12  H    0.070399
 Sum of Mulliken charges =  -0.00000

 Dipole moment (field-independent basis, Debye):
    X=             -0.3059    Y=             -0.0953    Z=              0.0740  Tot=              0.3289
 Quadrupole moment (field-independent basis, Debye-Ang):
   XX=            -31.7931   YY=            -31.6844   ZZ=            -38.2287
   XY=             -0.8485   XZ=             -0.2026   YZ=              0.3915

 Normal termination of Gaussian 16 at Fri Nov 10 18:05:15 2023.
