 Gaussian 16, Revision B.01,
 Gaussian 16:  EM64L-G16RevB.01 20-Dec-2017

 ---------------------------------
 # TD=(NStates=1) B3LYP/6-31G(d,p)
 ---------------------------------

 -------
 ABSSPCT
 -------
 Symbolic Z-matrix:
 Charge =  0 Multiplicity = 1

                         Standard orientation:
 ---------------------------------------------------------------------
 Center     Atomic      Atomic             Coordinates (Angstroms)
 Number     Number       Type             X           Y           Z
 ---------------------------------------------------------------------
      1          6           0       -0.178683    1.334562    0.024917
      2          6           0       -1.280184    0.540044   -0.010717
      3          6           0       -1.124305   -0.839070   -0.021257
      4          6           0        0.193322   -1.325692    0.054632
      5          6           0        1.242687   -0.561435   -0.006130
      6          6           0        1.164818    0.847465   -0.062370
      7          1           0       -0.433534    2.385912    0.169164
      8          1           0        1.977896    1.361510    0.021325
      9          1           0        2.218538   -0.943360    0.033926
     10          1           0        0.325256   -2.285664   -0.013159
     11          1           0       -2.042611   -1.512110   -0.045759
     12          1           0       -2.151478    1.018464   -0.039948
 ---------------------------------------------------------------------

 SCF Done:  E(RB3LYP) =  -232.204390301     A.U. after   13 cycles

 Excitation energies and oscillator strengths:

 Excited State   1:      Singlet-A      5.5836 eV  222.05 nm  f=0.0037  <S**2>=0.000
      20 -> 22         0.53773
      21 -> 22         0.12332
      21 -> 23        -0.43723
 This state for optimization and/or second-order correction.
 Total Energy, E(TD-HF/TD-DFT) =  -231.999197736
 Copying the excited state density for this state as the 1-particle RhoCI density.

 The electronic state is 1-A.
 Alpha  occ. eigenvalues --  -10.19185 -10.18409 -10.17850 -10.17245 -10.17088
 Alpha  occ. eigenvalues --  -10.16382  -0.85576  -0.75854  -0.73840  -0.61813
 Alpha  occ. eigenvalues --   -0.59394  -0.53597  -0.46621  -0.44235  -0.42660
 Alpha  occ. eigenvalues --   -0.41969  -0.36327  -0.35231  -0.32681  -0.25480
 Alpha  occ. eigenvalues --   -0.23990
 Alpha virt. eigenvalues --   -0.00879   0.01895   0.10204   0.15019   0.15342
 Alpha virt. eigenvalues --    0.16668   0.18927   0.20340   0.21274   0.29769
 Alpha virt. eigenvalues --    0.30005   0.32046   0.34306   0.46767   0.52500

 Mulliken charges:
               1
     1  C   -0.100016
     2  C   -0.048160
     3  C   -0.104714
     4  C   -0.046890
     5  C   -0.086605
     6  C   -0.059650
     7  H    0.073415
     8  H    0.071296
     9  H    0.076576
    10  H    0.066946
    11  H    0.084057
    12  H    0.073744
 Sum of Mulliken charges =  -0.00000

 Dipole moment (field-independent basis, Debye):
    X=              0.0175    Y=             -0.0160    Z=              0.0716  Tot=              0.0755
 Quadrupole moment (field-independent basis, Debye-Ang):
   XX=            -30.9264   YY=            -32.0150   ZZ=            -37.9457
   XY=             -0.1231   XZ=              0.1848   YZ=              0.3604

 Normal termination of Gaussian 16 at Fri Nov 10 19:00:58 2023.
