 Gaussian 16, Revision B.01,
 Gaussian 16:  EM64L-G16RevB.01 20-Dec-2017

 ---------------------------------
 # TD=(NStates=1) B3LYP/6-31G(d,p)
 ---------------------------------

 -------
 ABSSPCT
 -------
 Symbolic Z-matrix:
 Charge =  0 Multiplicity = 1

                         Standard orientation:
 ---------------------------------------------------------------------
 Center     Atomic      Atomic             Coordinates (Angstroms)
 Number     Number       Type             X           Y           Z
 ---------------------------------------------------------------------
      1          6           0       -0.889423   -1.042455   -0.050646
      2          6           0        0.473527   -1.237730    0.106610
      3          6           0        1.403388   -0.317767   -0.083425
      4          6           0        0.938996    1.068653    0.019482
      5          6           0       -0.481457    1.275077    0.048559
      6          6           0       -1.410936    0.238436   -0.102944
      7          1           0       -1.541215   -2.063935    0.087584
      8          1           0       -2.440244    0.465095    0.058723
      9          1           0       -0.933681    2.315421    0.182763
     10          1           0        1.503203    2.009595    0.039549
     11          1           0        2.450631   -0.356201   -0.192696
     12          1           0        0.756730   -2.275262    0.198256
 ---------------------------------------------------------------------

 SCF Done:  E(RB3LYP) =  -232.215148547     A.U. after   13 cycles

 Excitation energies and oscillator strengths:

 Excited State   1:      Singlet-A      5.3456 eV  231.94 nm  f=0.0058  <S**2>=0.000
      20 -> 22         0.40077
      20 -> 23        -0.23520
      21 -> 22         0.36568
      21 -> 23         0.38724
 This state for optimization and/or second-order correction.
 Total Energy, E(TD-HF/TD-DFT) =  -232.018702160
 Copying the excited state density for this state as the 1-particle RhoCI density.

 The electronic state is 1-A.
 Alpha  occ. eigenvalues --  -10.19903 -10.19731 -10.19365 -10.19084 -10.18718
 Alpha  occ. eigenvalues --  -10.18069  -0.85056  -0.74991  -0.73013  -0.60445
 Alpha  occ. eigenvalues --   -0.58730  -0.51659  -0.46528  -0.43327  -0.41984
 Alpha  occ. eigenvalues --   -0.40085  -0.36240  -0.34178  -0.32550  -0.25235
 Alpha  occ. eigenvalues --   -0.23933
 Alpha virt. eigenvalues --   -0.01015   0.00603   0.07698   0.12880   0.14002
 Alpha virt. eigenvalues --    0.14896   0.17069   0.18408   0.19005   0.28241
 Alpha virt. eigenvalues --    0.29185   0.31146   0.33700   0.46394   0.51702

 Mulliken charges:
               1
     1  C   -0.088933
     2  C   -0.071965
     3  C   -0.072265
     4  C   -0.108458
     5  C   -0.092194
     6  C   -0.079103
     7  H    0.075578
     8  H    0.092721
     9  H    0.077119
    10  H    0.093220
    11  H    0.095317
    12  H    0.078964
 Sum of Mulliken charges =  -0.00000

 Dipole moment (field-independent basis, Debye):
    X=              0.1024    Y=              0.0699    Z=              0.1877  Tot=              0.2249
 Quadrupole moment (field-independent basis, Debye-Ang):
   XX=            -31.5944   YY=            -31.9511   ZZ=            -38.5593
   XY=              0.0403   XZ=             -0.6263   YZ=             -0.0201

 Normal termination of Gaussian 16 at Fri Nov 10 17:11:10 2023.
