 Gaussian 16, Revision B.01,
 Gaussian 16:  EM64L-G16RevB.01 20-Dec-2017

 ---------------------------------
 # TD=(NStates=1) B3LYP/6-31G(d,p)
 ---------------------------------

 -------
 ABSSPCT
 -------
 Symbolic Z-matrix:
 Charge =  0 Multiplicity = 1

                         Standard orientation:
 ---------------------------------------------------------------------
 Center     Atomic      Atomic             Coordinates (Angstroms)
 Number     Number       Type             X           Y           Z
 ---------------------------------------------------------------------
      1          6           0        1.265531    0.678920    0.021900
      2          6           0       -0.003097    1.425296    0.014542
      3          6           0       -1.201650    0.702878    0.034844
      4          6           0       -1.237636   -0.694805   -0.119692
      5          6           0       -0.003676   -1.389984   -0.000255
      6          6           0        1.211467   -0.695629    0.008411
      7          1           0        2.181743    1.120091   -0.168023
      8          1           0        2.163028   -1.331580    0.014089
      9          1           0        0.018407   -2.468235    0.252427
     10          1           0       -2.380282   -1.152985    0.016622
     11          1           0       -2.223816    1.167273    0.219700
     12          1           0        0.055295    2.505381   -0.093315
 ---------------------------------------------------------------------

 SCF Done:  E(RB3LYP) =  -232.220813800     A.U. after   12 cycles

 Excitation energies and oscillator strengths:

 Excited State   1:      Singlet-A      5.2015 eV  238.36 nm  f=0.0046  <S**2>=0.000
      20 -> 22         0.43723
      20 -> 23         0.18521
      21 -> 22        -0.32603
      21 -> 23         0.40922
 This state for optimization and/or second-order correction.
 Total Energy, E(TD-HF/TD-DFT) =  -232.029661496
 Copying the excited state density for this state as the 1-particle RhoCI density.

 The electronic state is 1-A.
 Alpha  occ. eigenvalues --  -10.20750 -10.19868 -10.19705 -10.19652 -10.19283
 Alpha  occ. eigenvalues --  -10.19032  -0.84170  -0.74171  -0.73116  -0.60330
 Alpha  occ. eigenvalues --   -0.58266  -0.50966  -0.45335  -0.43507  -0.41408
 Alpha  occ. eigenvalues --   -0.40896  -0.35508  -0.34032  -0.33219  -0.25043
 Alpha  occ. eigenvalues --   -0.23862
 Alpha virt. eigenvalues --   -0.01474   0.00274   0.06958   0.12231   0.13841
 Alpha virt. eigenvalues --    0.14316   0.17083   0.17430   0.18598   0.28028
 Alpha virt. eigenvalues --    0.29200   0.31055   0.32165   0.46854   0.51268

 Mulliken charges:
               1
     1  C   -0.085234
     2  C   -0.096116
     3  C   -0.081105
     4  C   -0.086047
     5  C   -0.094557
     6  C   -0.078192
     7  H    0.089547
     8  H    0.082834
     9  H    0.090791
    10  H    0.079590
    11  H    0.086296
    12  H    0.092192
 Sum of Mulliken charges =  -0.00000

 Dipole moment (field-independent basis, Debye):
    X=              0.0777    Y=              0.0489    Z=              0.1303  Tot=              0.1594
 Quadrupole moment (field-independent basis, Debye-Ang):
   XX=            -31.3557   YY=            -32.2095   ZZ=            -38.7857
   XY=             -0.0065   XZ=             -0.7562   YZ=             -0.7310

 Normal termination of Gaussian 16 at Fri Nov 10 17:27:42 2023.
