 Gaussian 16, Revision B.01,
 Gaussian 16:  EM64L-G16RevB.01 20-Dec-2017

 ---------------------------------
 # TD=(NStates=1) B3LYP/6-31G(d,p)
 ---------------------------------

 -------
 ABSSPCT
 -------
 Symbolic Z-matrix:
 Charge =  0 Multiplicity = 1

                         Standard orientation:
 ---------------------------------------------------------------------
 Center     Atomic      Atomic             Coordinates (Angstroms)
 Number     Number       Type             X           Y           Z
 ---------------------------------------------------------------------
      1          6           0        0.309808   -1.347277   -0.022321
      2          6           0        1.350459   -0.429143    0.043745
      3          6           0        1.057964    0.904279   -0.038151
      4          6           0       -0.312269    1.325439   -0.075989
      5          6           0       -1.400965    0.413919    0.068796
      6          6           0       -1.058824   -0.879333   -0.046208
      7          1           0        0.494289   -2.322113   -0.127624
      8          1           0       -1.864517   -1.675745    0.032062
      9          1           0       -2.307247    0.770410    0.201839
     10          1           0       -0.310965    2.465676    0.031065
     11          1           0        1.894392    1.591086    0.029210
     12          1           0        2.417008   -0.756616    0.254218
 ---------------------------------------------------------------------

 SCF Done:  E(RB3LYP) =  -232.218834678     A.U. after   13 cycles

 Excitation energies and oscillator strengths:

 Excited State   1:      Singlet-A      5.4240 eV  228.58 nm  f=0.0015  <S**2>=0.000
      20 -> 22         0.47263
      21 -> 22        -0.12961
      21 -> 23         0.50396
 This state for optimization and/or second-order correction.
 Total Energy, E(TD-HF/TD-DFT) =  -232.019506069
 Copying the excited state density for this state as the 1-particle RhoCI density.

 The electronic state is 1-A.
 Alpha  occ. eigenvalues --  -10.19828 -10.19274 -10.18835 -10.18574 -10.18237
 Alpha  occ. eigenvalues --  -10.18216  -0.84733  -0.75420  -0.72916  -0.60534
 Alpha  occ. eigenvalues --   -0.59272  -0.52467  -0.45965  -0.43649  -0.43337
 Alpha  occ. eigenvalues --   -0.40300  -0.36075  -0.33667  -0.33369  -0.25672
 Alpha  occ. eigenvalues --   -0.23585
 Alpha virt. eigenvalues --   -0.00921   0.00813   0.08910   0.13689   0.14352
 Alpha virt. eigenvalues --    0.15236   0.18046   0.18691   0.19561   0.28161
 Alpha virt. eigenvalues --    0.29939   0.31475   0.32951   0.46260   0.51899

 Mulliken charges:
               1
     1  C   -0.074632
     2  C   -0.074923
     3  C   -0.084545
     4  C   -0.110082
     5  C   -0.044260
     6  C   -0.102606
     7  H    0.080114
     8  H    0.077534
     9  H    0.083948
    10  H    0.080018
    11  H    0.086938
    12  H    0.082496
 Sum of Mulliken charges =  -0.00000

 Dipole moment (field-independent basis, Debye):
    X=              0.0544    Y=             -0.0237    Z=              0.2693  Tot=              0.2757
 Quadrupole moment (field-independent basis, Debye-Ang):
   XX=            -31.2411   YY=            -32.0275   ZZ=            -38.4108
   XY=              0.1281   XZ=             -0.0213   YZ=              0.3466

 Normal termination of Gaussian 16 at Fri Nov 10 16:38:43 2023.
