 Gaussian 16, Revision B.01,
 Gaussian 16:  EM64L-G16RevB.01 20-Dec-2017

 ---------------------------------
 # TD=(NStates=1) B3LYP/6-31G(d,p)
 ---------------------------------

 -------
 ABSSPCT
 -------
 Symbolic Z-matrix:
 Charge =  0 Multiplicity = 1

                         Standard orientation:
 ---------------------------------------------------------------------
 Center     Atomic      Atomic             Coordinates (Angstroms)
 Number     Number       Type             X           Y           Z
 ---------------------------------------------------------------------
      1          6           0       -0.414781   -1.327975   -0.081266
      2          6           0        1.001022   -0.957669    0.003671
      3          6           0        1.424034    0.311495   -0.018884
      4          6           0        0.430083    1.272653   -0.040293
      5          6           0       -0.992285    1.054261   -0.006584
      6          6           0       -1.429241   -0.340488    0.044919
      7          1           0       -0.808973   -2.443035   -0.086919
      8          1           0       -2.550022   -0.594514    0.267125
      9          1           0       -1.624495    1.896843   -0.058533
     10          1           0        0.622095    2.393215    0.065738
     11          1           0        2.470616    0.456431    0.209419
     12          1           0        1.777787   -1.782602    0.193794
 ---------------------------------------------------------------------

 SCF Done:  E(RB3LYP) =  -232.216218508     A.U. after   13 cycles

 Excitation energies and oscillator strengths:

 Excited State   1:      Singlet-A      5.2333 eV  236.92 nm  f=0.0027  <S**2>=0.000
      20 -> 22        -0.45197
      21 -> 23         0.54253
 This state for optimization and/or second-order correction.
 Total Energy, E(TD-HF/TD-DFT) =  -232.023899933
 Copying the excited state density for this state as the 1-particle RhoCI density.

 The electronic state is 1-A.
 Alpha  occ. eigenvalues --  -10.20925 -10.20760 -10.19883 -10.19709 -10.19665
 Alpha  occ. eigenvalues --  -10.18659  -0.84168  -0.74534  -0.72362  -0.59371
 Alpha  occ. eigenvalues --   -0.58800  -0.50930  -0.45229  -0.43752  -0.42367
 Alpha  occ. eigenvalues --   -0.39282  -0.35743  -0.34411  -0.32483  -0.25303
 Alpha  occ. eigenvalues --   -0.23570
 Alpha virt. eigenvalues --   -0.00882  -0.00233   0.07442   0.12095   0.13411
 Alpha virt. eigenvalues --    0.14312   0.15488   0.17932   0.18549   0.27605
 Alpha virt. eigenvalues --    0.27928   0.31021   0.31746   0.46212   0.49097

 Mulliken charges:
               1
     1  C   -0.094058
     2  C   -0.094561
     3  C   -0.055549
     4  C   -0.102384
     5  C   -0.083002
     6  C   -0.094575
     7  H    0.083935
     8  H    0.092431
     9  H    0.093303
    10  H    0.074315
    11  H    0.096232
    12  H    0.083913
 Sum of Mulliken charges =  -0.00000

 Dipole moment (field-independent basis, Debye):
    X=             -0.0272    Y=              0.0437    Z=              0.3585  Tot=              0.3621
 Quadrupole moment (field-independent basis, Debye-Ang):
   XX=            -31.1388   YY=            -32.3045   ZZ=            -38.8920
   XY=             -0.4028   XZ=              0.3136   YZ=             -0.1271

 Normal termination of Gaussian 16 at Fri Nov 10 16:27:43 2023.
