 Gaussian 16, Revision B.01,
 Gaussian 16:  EM64L-G16RevB.01 20-Dec-2017

 ---------------------------------
 # TD=(NStates=1) B3LYP/6-31G(d,p)
 ---------------------------------

 -------
 ABSSPCT
 -------
 Symbolic Z-matrix:
 Charge =  0 Multiplicity = 1

                         Standard orientation:
 ---------------------------------------------------------------------
 Center     Atomic      Atomic             Coordinates (Angstroms)
 Number     Number       Type             X           Y           Z
 ---------------------------------------------------------------------
      1          6           0        0.161976   -1.344205   -0.071166
      2          6           0       -1.128289   -0.805178    0.042434
      3          6           0       -1.304540    0.540165    0.012159
      4          6           0       -0.170161    1.319403   -0.009631
      5          6           0        1.144438    0.856123    0.029706
      6          6           0        1.286860   -0.569783   -0.062513
      7          1           0        0.271416   -2.420108    0.238432
      8          1           0        2.329921   -1.006687    0.143041
      9          1           0        2.099583    1.470539    0.013038
     10          1           0       -0.316703    2.411521    0.095603
     11          1           0       -2.299967    0.913117   -0.181571
     12          1           0       -2.025955   -1.347524    0.045522
 ---------------------------------------------------------------------

 SCF Done:  E(RB3LYP) =  -232.230146800     A.U. after   13 cycles

 Excitation energies and oscillator strengths:

 Excited State   1:      Singlet-A      5.4665 eV  226.81 nm  f=0.0008  <S**2>=0.000
      20 -> 22        -0.41301
      20 -> 23         0.25500
      21 -> 22         0.29740
      21 -> 23         0.41891
 This state for optimization and/or second-order correction.
 Total Energy, E(TD-HF/TD-DFT) =  -232.029257130
 Copying the excited state density for this state as the 1-particle RhoCI density.

 The electronic state is 1-A.
 Alpha  occ. eigenvalues --  -10.19803 -10.19548 -10.18883 -10.18792 -10.18195
 Alpha  occ. eigenvalues --  -10.18067  -0.85344  -0.74775  -0.73708  -0.60119
 Alpha  occ. eigenvalues --   -0.59189  -0.51552  -0.45416  -0.44563  -0.41628
 Alpha  occ. eigenvalues --   -0.40472  -0.36324  -0.35272  -0.31745  -0.25162
 Alpha  occ. eigenvalues --   -0.24598
 Alpha virt. eigenvalues --   -0.00405   0.00101   0.08174   0.13223   0.13846
 Alpha virt. eigenvalues --    0.15618   0.17099   0.18338   0.19803   0.28686
 Alpha virt. eigenvalues --    0.29968   0.31526   0.33990   0.46119   0.51579

 Mulliken charges:
               1
     1  C   -0.085847
     2  C   -0.080813
     3  C   -0.066875
     4  C   -0.097089
     5  C   -0.081710
     6  C   -0.097459
     7  H    0.081315
     8  H    0.086566
     9  H    0.093528
    10  H    0.075471
    11  H    0.090744
    12  H    0.082169
 Sum of Mulliken charges =  -0.00000

 Dipole moment (field-independent basis, Debye):
    X=             -0.0891    Y=              0.0752    Z=              0.1969  Tot=              0.2288
 Quadrupole moment (field-independent basis, Debye-Ang):
   XX=            -30.7726   YY=            -32.9943   ZZ=            -38.3891
   XY=              0.1879   XZ=              0.6129   YZ=             -0.5873

 Normal termination of Gaussian 16 at Fri Nov 10 18:38:15 2023.
