 Gaussian 16, Revision B.01,
 Gaussian 16:  EM64L-G16RevB.01 20-Dec-2017

 ---------------------------------
 # TD=(NStates=1) B3LYP/6-31G(d,p)
 ---------------------------------

 -------
 ABSSPCT
 -------
 Symbolic Z-matrix:
 Charge =  0 Multiplicity = 1

                         Standard orientation:
 ---------------------------------------------------------------------
 Center     Atomic      Atomic             Coordinates (Angstroms)
 Number     Number       Type             X           Y           Z
 ---------------------------------------------------------------------
      1          6           0        0.557839   -1.237939   -0.038172
      2          6           0       -0.847296   -1.123048   -0.005149
      3          6           0       -1.433993    0.157994    0.013768
      4          6           0       -0.596707    1.230461   -0.052253
      5          6           0        0.865661    1.159451    0.046159
      6          6           0        1.429065   -0.170969   -0.055490
      7          1           0        1.184202   -2.184930    0.106536
      8          1           0        2.495346   -0.505801    0.152594
      9          1           0        1.607368    2.033075    0.001471
     10          1           0       -0.941139    2.135202    0.189975
     11          1           0       -2.560847    0.359995   -0.102972
     12          1           0       -1.632339   -1.933238    0.199222
 ---------------------------------------------------------------------

 SCF Done:  E(RB3LYP) =  -232.207209543     A.U. after   13 cycles

 Excitation energies and oscillator strengths:

 Excited State   1:      Singlet-A      5.2880 eV  234.46 nm  f=0.0015  <S**2>=0.000
      20 -> 22         0.48790
      21 -> 22         0.16367
      21 -> 23         0.47437
 This state for optimization and/or second-order correction.
 Total Energy, E(TD-HF/TD-DFT) =  -232.012879238
 Copying the excited state density for this state as the 1-particle RhoCI density.

 The electronic state is 1-A.
 Alpha  occ. eigenvalues --  -10.20787 -10.20126 -10.19628 -10.19620 -10.19513
 Alpha  occ. eigenvalues --  -10.18324  -0.84341  -0.74874  -0.72714  -0.60526
 Alpha  occ. eigenvalues --   -0.58380  -0.50994  -0.45552  -0.43357  -0.41795
 Alpha  occ. eigenvalues --   -0.39859  -0.35886  -0.34381  -0.32185  -0.25422
 Alpha  occ. eigenvalues --   -0.23969
 Alpha virt. eigenvalues --   -0.01495   0.00199   0.07258   0.12085   0.13328
 Alpha virt. eigenvalues --    0.14371   0.15594   0.18679   0.18952   0.28164
 Alpha virt. eigenvalues --    0.28618   0.29819   0.32484   0.45941   0.49478

 Mulliken charges:
               1
     1  C   -0.078411
     2  C   -0.092806
     3  C   -0.086076
     4  C   -0.078352
     5  C   -0.113989
     6  C   -0.081920
     7  H    0.080990
     8  H    0.088367
     9  H    0.094480
    10  H    0.085136
    11  H    0.094001
    12  H    0.088579
 Sum of Mulliken charges =  -0.00000

 Dipole moment (field-independent basis, Debye):
    X=             -0.0149    Y=              0.0726    Z=              0.3261  Tot=              0.3344
 Quadrupole moment (field-independent basis, Debye-Ang):
   XX=            -30.8181   YY=            -32.8004   ZZ=            -38.7725
   XY=             -0.2445   XZ=              0.2260   YZ=             -0.2394

 Normal termination of Gaussian 16 at Fri Nov 10 16:29:34 2023.
