 Gaussian 16, Revision B.01,
 Gaussian 16:  EM64L-G16RevB.01 20-Dec-2017

 ---------------------------------
 # TD=(NStates=1) B3LYP/6-31G(d,p)
 ---------------------------------

 -------
 ABSSPCT
 -------
 Symbolic Z-matrix:
 Charge =  0 Multiplicity = 1

                         Standard orientation:
 ---------------------------------------------------------------------
 Center     Atomic      Atomic             Coordinates (Angstroms)
 Number     Number       Type             X           Y           Z
 ---------------------------------------------------------------------
      1          6           0        0.336290    1.307330    0.016934
      2          6           0       -1.026585    0.971631   -0.024775
      3          6           0       -1.392575   -0.413625    0.041881
      4          6           0       -0.322927   -1.307698   -0.033883
      5          6           0        1.028593   -0.999957   -0.031726
      6          6           0        1.396269    0.391336   -0.036731
      7          1           0        0.453253    2.339833   -0.005647
      8          1           0        2.325110    0.920113    0.324795
      9          1           0        1.879868   -1.679168   -0.000438
     10          1           0       -0.565151   -2.253141    0.086533
     11          1           0       -2.466226   -0.878270    0.129547
     12          1           0       -1.741248    1.856534   -0.124982
 ---------------------------------------------------------------------

 SCF Done:  E(RB3LYP) =  -232.213849064     A.U. after   14 cycles

 Excitation energies and oscillator strengths:

 Excited State   1:      Singlet-A      5.2893 eV  234.40 nm  f=0.0045  <S**2>=0.000
      20 -> 22         0.54914
      21 -> 23         0.43188
 This state for optimization and/or second-order correction.
 Total Energy, E(TD-HF/TD-DFT) =  -232.019469160
 Copying the excited state density for this state as the 1-particle RhoCI density.

 The electronic state is 1-A.
 Alpha  occ. eigenvalues --  -10.20397 -10.19776 -10.19718 -10.19514 -10.18003
 Alpha  occ. eigenvalues --  -10.17861  -0.84305  -0.74489  -0.73381  -0.60181
 Alpha  occ. eigenvalues --   -0.59522  -0.51277  -0.46186  -0.43248  -0.41518
 Alpha  occ. eigenvalues --   -0.41021  -0.36132  -0.33446  -0.33212  -0.24717
 Alpha  occ. eigenvalues --   -0.24378
 Alpha virt. eigenvalues --   -0.01397   0.00577   0.08717   0.12359   0.13593
 Alpha virt. eigenvalues --    0.15015   0.16340   0.19398   0.19766   0.28816
 Alpha virt. eigenvalues --    0.29443   0.29983   0.32216   0.46583   0.50291

 Mulliken charges:
               1
     1  C   -0.070858
     2  C   -0.097897
     3  C   -0.092285
     4  C   -0.063079
     5  C   -0.096135
     6  C   -0.100598
     7  H    0.078994
     8  H    0.095256
     9  H    0.095155
    10  H    0.075769
    11  H    0.091842
    12  H    0.083833
 Sum of Mulliken charges =  -0.00000

 Dipole moment (field-independent basis, Debye):
    X=             -0.0583    Y=             -0.0114    Z=              0.2643  Tot=              0.2709
 Quadrupole moment (field-independent basis, Debye-Ang):
   XX=            -31.8687   YY=            -31.4444   ZZ=            -38.5763
   XY=              0.2150   XZ=              0.5125   YZ=             -0.1798

 Normal termination of Gaussian 16 at Fri Nov 10 19:17:35 2023.
