 Gaussian 16, Revision B.01,
 Gaussian 16:  EM64L-G16RevB.01 20-Dec-2017

 ---------------------------------
 # TD=(NStates=1) B3LYP/6-31G(d,p)
 ---------------------------------

 -------
 ABSSPCT
 -------
 Symbolic Z-matrix:
 Charge =  0 Multiplicity = 1

                         Standard orientation:
 ---------------------------------------------------------------------
 Center     Atomic      Atomic             Coordinates (Angstroms)
 Number     Number       Type             X           Y           Z
 ---------------------------------------------------------------------
      1          6           0        1.324029    0.300381    0.001254
      2          6           0        0.935409   -1.038014    0.008227
      3          6           0       -0.403022   -1.246797   -0.050392
      4          6           0       -1.339732   -0.274610    0.007329
      5          6           0       -0.906962    0.974106   -0.005119
      6          6           0        0.421768    1.311108    0.005907
      7          1           0        2.468664    0.351581    0.078117
      8          1           0        0.679417    2.367872   -0.039048
      9          1           0       -1.603719    1.747340   -0.050104
     10          1           0       -2.458614   -0.591670    0.168710
     11          1           0       -0.924812   -2.223196    0.022630
     12          1           0        1.650130   -1.808976    0.016469
 ---------------------------------------------------------------------

 SCF Done:  E(RB3LYP) =  -232.223577163     A.U. after   13 cycles

 Excitation energies and oscillator strengths:

 Excited State   1:      Singlet-A      5.8623 eV  211.50 nm  f=0.0001  <S**2>=0.000
      20 -> 22         0.46316
      20 -> 23         0.18905
      21 -> 22        -0.20244
      21 -> 23         0.45630
 This state for optimization and/or second-order correction.
 Total Energy, E(TD-HF/TD-DFT) =  -232.008143120
 Copying the excited state density for this state as the 1-particle RhoCI density.

 The electronic state is 1-A.
 Alpha  occ. eigenvalues --  -10.18883 -10.18261 -10.18027 -10.18004 -10.17725
 Alpha  occ. eigenvalues --  -10.17151  -0.86826  -0.75201  -0.74788  -0.60889
 Alpha  occ. eigenvalues --   -0.59386  -0.52597  -0.45358  -0.44621  -0.41896
 Alpha  occ. eigenvalues --   -0.41246  -0.37543  -0.33764  -0.32437  -0.25380
 Alpha  occ. eigenvalues --   -0.25197
 Alpha virt. eigenvalues --    0.00785   0.01091   0.07946   0.12313   0.14583
 Alpha virt. eigenvalues --    0.17610   0.18208   0.19203   0.20097   0.29666
 Alpha virt. eigenvalues --    0.31365   0.34220   0.35276   0.44867   0.52124

 Mulliken charges:
               1
     1  C   -0.104828
     2  C   -0.064035
     3  C   -0.084952
     4  C   -0.066756
     5  C   -0.086077
     6  C   -0.068562
     7  H    0.075892
     8  H    0.086524
     9  H    0.073771
    10  H    0.083121
    11  H    0.068179
    12  H    0.087724
 Sum of Mulliken charges =  -0.00000

 Dipole moment (field-independent basis, Debye):
    X=             -0.0444    Y=              0.0034    Z=              0.1010  Tot=              0.1104
 Quadrupole moment (field-independent basis, Debye-Ang):
   XX=            -31.6567   YY=            -32.1462   ZZ=            -38.0665
   XY=             -0.3369   XZ=             -0.1316   YZ=             -0.2884

 Normal termination of Gaussian 16 at Fri Nov 10 17:05:28 2023.
