 Gaussian 16, Revision B.01,
 Gaussian 16:  EM64L-G16RevB.01 20-Dec-2017

 ---------------------------------
 # TD=(NStates=1) B3LYP/6-31G(d,p)
 ---------------------------------

 -------
 ABSSPCT
 -------
 Symbolic Z-matrix:
 Charge =  0 Multiplicity = 1

                         Standard orientation:
 ---------------------------------------------------------------------
 Center     Atomic      Atomic             Coordinates (Angstroms)
 Number     Number       Type             X           Y           Z
 ---------------------------------------------------------------------
      1          6           0       -1.209844   -0.729747   -0.010655
      2          6           0        0.000252   -1.370227    0.030061
      3          6           0        1.239736   -0.676693    0.087194
      4          6           0        1.211757    0.696083   -0.111055
      5          6           0       -0.029859    1.477281    0.033821
      6          6           0       -1.199289    0.645163   -0.067384
      7          1           0       -2.139895   -1.350830   -0.166540
      8          1           0       -2.375117    1.100080    0.355844
      9          1           0       -0.143742    2.437067    0.072563
     10          1           0        2.285132    1.139154    0.023290
     11          1           0        2.221782   -1.247043    0.024664
     12          1           0        0.075325   -2.329591   -0.081711
 ---------------------------------------------------------------------

 SCF Done:  E(RB3LYP) =  -232.173111778     A.U. after   13 cycles

 Excitation energies and oscillator strengths:

 Excited State   1:      Singlet-A      5.2150 eV  237.74 nm  f=0.0000  <S**2>=0.000
      20 -> 22         0.51132
      21 -> 23         0.48601
 This state for optimization and/or second-order correction.
 Total Energy, E(TD-HF/TD-DFT) =  -231.981462243
 Copying the excited state density for this state as the 1-particle RhoCI density.

 The electronic state is 1-A.
 Alpha  occ. eigenvalues --  -10.21086 -10.20651 -10.19933 -10.19633 -10.19117
 Alpha  occ. eigenvalues --  -10.17782  -0.84662  -0.74354  -0.73843  -0.61879
 Alpha  occ. eigenvalues --   -0.57698  -0.51570  -0.46889  -0.43469  -0.41832
 Alpha  occ. eigenvalues --   -0.40248  -0.36436  -0.33870  -0.31564  -0.25165
 Alpha  occ. eigenvalues --   -0.24442
 Alpha virt. eigenvalues --   -0.01612  -0.00490   0.06470   0.11181   0.13617
 Alpha virt. eigenvalues --    0.14339   0.16572   0.17884   0.20153   0.26618
 Alpha virt. eigenvalues --    0.28776   0.32298   0.32441   0.45268   0.45613

 Mulliken charges:
               1
     1  C   -0.066360
     2  C   -0.054903
     3  C   -0.085767
     4  C   -0.102564
     5  C   -0.063289
     6  C   -0.094575
     7  H    0.093780
     8  H    0.042555
     9  H    0.091136
    10  H    0.076758
    11  H    0.092154
    12  H    0.071075
 Sum of Mulliken charges =  -0.00000

 Dipole moment (field-independent basis, Debye):
    X=              0.2412    Y=             -0.3340    Z=              0.0797  Tot=              0.4196
 Quadrupole moment (field-independent basis, Debye-Ang):
   XX=            -32.3945   YY=            -31.7346   ZZ=            -38.6451
   XY=              0.1518   XZ=             -0.1651   YZ=              0.7828

 Normal termination of Gaussian 16 at Fri Nov 10 17:48:57 2023.
