 Gaussian 16, Revision B.01,
 Gaussian 16:  EM64L-G16RevB.01 20-Dec-2017

 ---------------------------------
 # TD=(NStates=1) B3LYP/6-31G(d,p)
 ---------------------------------

 -------
 ABSSPCT
 -------
 Symbolic Z-matrix:
 Charge =  0 Multiplicity = 1

                         Standard orientation:
 ---------------------------------------------------------------------
 Center     Atomic      Atomic             Coordinates (Angstroms)
 Number     Number       Type             X           Y           Z
 ---------------------------------------------------------------------
      1          6           0       -0.952840   -0.978565   -0.025470
      2          6           0        0.425240   -1.305950   -0.029702
      3          6           0        1.375499   -0.271881    0.020718
      4          6           0        0.925728    0.969597   -0.073236
      5          6           0       -0.421318    1.378855    0.017460
      6          6           0       -1.363755    0.268484    0.055206
      7          1           0       -1.656524   -1.752008    0.142114
      8          1           0       -2.368061    0.407738   -0.120671
      9          1           0       -0.648711    2.456051   -0.051378
     10          1           0        1.767865    1.548020    0.142970
     11          1           0        2.375859   -0.558730    0.150375
     12          1           0        0.598246   -2.464314   -0.053267
 ---------------------------------------------------------------------

 SCF Done:  E(RB3LYP) =  -232.208133873     A.U. after   13 cycles

 Excitation energies and oscillator strengths:

 Excited State   1:      Singlet-A      5.5009 eV  225.39 nm  f=0.0003  <S**2>=0.000
      20 -> 22         0.51685
      21 -> 23        -0.48057
 This state for optimization and/or second-order correction.
 Total Energy, E(TD-HF/TD-DFT) =  -232.005979892
 Copying the excited state density for this state as the 1-particle RhoCI density.

 The electronic state is 1-A.
 Alpha  occ. eigenvalues --  -10.19932 -10.19447 -10.17982 -10.17947 -10.17567
 Alpha  occ. eigenvalues --  -10.17518  -0.85494  -0.76318  -0.72836  -0.61478
 Alpha  occ. eigenvalues --   -0.58964  -0.52182  -0.46322  -0.43500  -0.42651
 Alpha  occ. eigenvalues --   -0.40939  -0.36669  -0.34314  -0.32140  -0.25991
 Alpha  occ. eigenvalues --   -0.23690
 Alpha virt. eigenvalues --   -0.01372   0.01392   0.09159   0.13787   0.14711
 Alpha virt. eigenvalues --    0.15907   0.16912   0.19695   0.20056   0.28818
 Alpha virt. eigenvalues --    0.29739   0.31989   0.33465   0.45896   0.49950

 Mulliken charges:
               1
     1  C   -0.072118
     2  C   -0.094074
     3  C   -0.077291
     4  C   -0.075878
     5  C   -0.105245
     6  C   -0.082107
     7  H    0.084115
     8  H    0.082817
     9  H    0.096057
    10  H    0.078246
    11  H    0.090628
    12  H    0.074850
 Sum of Mulliken charges =  -0.00000

 Dipole moment (field-independent basis, Debye):
    X=              0.0210    Y=             -0.0920    Z=              0.1315  Tot=              0.1619
 Quadrupole moment (field-independent basis, Debye-Ang):
   XX=            -31.4922   YY=            -32.0150   ZZ=            -38.1951
   XY=              0.1002   XZ=              0.5831   YZ=             -0.1739

 Normal termination of Gaussian 16 at Fri Nov 10 18:43:08 2023.
