 Gaussian 16, Revision B.01,
 Gaussian 16:  EM64L-G16RevB.01 20-Dec-2017

 ---------------------------------
 # TD=(NStates=1) B3LYP/6-31G(d,p)
 ---------------------------------

 -------
 ABSSPCT
 -------
 Symbolic Z-matrix:
 Charge =  0 Multiplicity = 1

                         Standard orientation:
 ---------------------------------------------------------------------
 Center     Atomic      Atomic             Coordinates (Angstroms)
 Number     Number       Type             X           Y           Z
 ---------------------------------------------------------------------
      1          6           0        1.380583    0.069494   -0.028595
      2          6           0        0.831103   -1.074454   -0.001298
      3          6           0       -0.553389   -1.254678    0.041293
      4          6           0       -1.446039   -0.147700   -0.026494
      5          6           0       -0.810741    1.153192    0.008134
      6          6           0        0.616975    1.203595    0.000441
      7          1           0        2.487349    0.393000   -0.024842
      8          1           0        0.866439    2.316479    0.207119
      9          1           0       -1.297227    1.991476   -0.084848
     10          1           0       -2.489545   -0.204324   -0.087869
     11          1           0       -0.981434   -2.207924    0.129763
     12          1           0        1.303460   -1.985405   -0.100213
 ---------------------------------------------------------------------

 SCF Done:  E(RB3LYP) =  -232.198125220     A.U. after   13 cycles

 Excitation energies and oscillator strengths:

 Excited State   1:      Singlet-A      5.5090 eV  225.06 nm  f=0.0008  <S**2>=0.000
      20 -> 22        -0.47667
      21 -> 23         0.51466
 This state for optimization and/or second-order correction.
 Total Energy, E(TD-HF/TD-DFT) =  -231.995673830
 Copying the excited state density for this state as the 1-particle RhoCI density.

 The electronic state is 1-A.
 Alpha  occ. eigenvalues --  -10.19007 -10.18899 -10.18531 -10.18297 -10.17849
 Alpha  occ. eigenvalues --  -10.17309  -0.85612  -0.75076  -0.73762  -0.60945
 Alpha  occ. eigenvalues --   -0.59965  -0.52266  -0.46688  -0.45263  -0.42447
 Alpha  occ. eigenvalues --   -0.40380  -0.37020  -0.33532  -0.32191  -0.25386
 Alpha  occ. eigenvalues --   -0.23997
 Alpha virt. eigenvalues --   -0.00269   0.00617   0.08861   0.14073   0.14544
 Alpha virt. eigenvalues --    0.16857   0.17251   0.19342   0.20578   0.28593
 Alpha virt. eigenvalues --    0.30129   0.31078   0.34002   0.46630   0.52366

 Mulliken charges:
               1
     1  C   -0.069206
     2  C   -0.063406
     3  C   -0.101059
     4  C   -0.082793
     5  C   -0.073687
     6  C   -0.098721
     7  H    0.085593
     8  H    0.081374
     9  H    0.072350
    10  H    0.085201
    11  H    0.082304
    12  H    0.082052
 Sum of Mulliken charges =  -0.00000

 Dipole moment (field-independent basis, Debye):
    X=             -0.2019    Y=             -0.0087    Z=              0.0100  Tot=              0.2023
 Quadrupole moment (field-independent basis, Debye-Ang):
   XX=            -31.9882   YY=            -31.2658   ZZ=            -38.1965
   XY=             -0.0731   XZ=              0.1540   YZ=              0.1852

 Normal termination of Gaussian 16 at Fri Nov 10 16:55:41 2023.
