 Gaussian 16, Revision B.01,
 Gaussian 16:  EM64L-G16RevB.01 20-Dec-2017

 ---------------------------------
 # TD=(NStates=1) B3LYP/6-31G(d,p)
 ---------------------------------

 -------
 ABSSPCT
 -------
 Symbolic Z-matrix:
 Charge =  0 Multiplicity = 1

                         Standard orientation:
 ---------------------------------------------------------------------
 Center     Atomic      Atomic             Coordinates (Angstroms)
 Number     Number       Type             X           Y           Z
 ---------------------------------------------------------------------
      1          6           0        0.583180   -1.219055    0.011940
      2          6           0        1.380876   -0.125566    0.048629
      3          6           0        0.776790    1.163355   -0.042266
      4          6           0       -0.553848    1.217710   -0.049585
      5          6           0       -1.387441    0.089276    0.060501
      6          6           0       -0.791236   -1.084704   -0.067936
      7          1           0        1.149887   -2.142615   -0.009738
      8          1           0       -1.479003   -2.005446   -0.144503
      9          1           0       -2.509910    0.124874    0.218686
     10          1           0       -1.077769    2.232064    0.114494
     11          1           0        1.426511    2.001893   -0.106729
     12          1           0        2.440358   -0.456867    0.160086
 ---------------------------------------------------------------------

 SCF Done:  E(RB3LYP) =  -232.224600112     A.U. after   13 cycles

 Excitation energies and oscillator strengths:

 Excited State   1:      Singlet-A      5.7374 eV  216.10 nm  f=0.0005  <S**2>=0.000
      20 -> 22         0.43576
      20 -> 23        -0.23418
      21 -> 22        -0.27763
      21 -> 23        -0.42151
 This state for optimization and/or second-order correction.
 Total Energy, E(TD-HF/TD-DFT) =  -232.013754688
 Copying the excited state density for this state as the 1-particle RhoCI density.

 The electronic state is 1-A.
 Alpha  occ. eigenvalues --  -10.18926 -10.18648 -10.18635 -10.18562 -10.18439
 Alpha  occ. eigenvalues --  -10.17855  -0.86222  -0.74889  -0.74599  -0.60042
 Alpha  occ. eigenvalues --   -0.59155  -0.52096  -0.45281  -0.43953  -0.42060
 Alpha  occ. eigenvalues --   -0.40720  -0.37231  -0.34173  -0.32138  -0.25316
 Alpha  occ. eigenvalues --   -0.24922
 Alpha virt. eigenvalues --    0.00319   0.00952   0.07630   0.12760   0.13574
 Alpha virt. eigenvalues --    0.16799   0.17489   0.18125   0.19698   0.29292
 Alpha virt. eigenvalues --    0.31261   0.31702   0.35176   0.45344   0.52145

 Mulliken charges:
               1
     1  C   -0.072779
     2  C   -0.090196
     3  C   -0.075986
     4  C   -0.101338
     5  C   -0.073859
     6  C   -0.080084
     7  H    0.081965
     8  H    0.071865
     9  H    0.091040
    10  H    0.075498
    11  H    0.089527
    12  H    0.084348
 Sum of Mulliken charges =  -0.00000

 Dipole moment (field-independent basis, Debye):
    X=              0.0665    Y=             -0.0818    Z=              0.1315  Tot=              0.1685
 Quadrupole moment (field-independent basis, Debye-Ang):
   XX=            -31.3119   YY=            -32.5081   ZZ=            -38.2592
   XY=             -0.2458   XZ=             -0.2439   YZ=              0.2142

 Normal termination of Gaussian 16 at Fri Nov 10 17:30:12 2023.
