 Gaussian 16, Revision B.01,
 Gaussian 16:  EM64L-G16RevB.01 20-Dec-2017

 ---------------------------------
 # TD=(NStates=1) B3LYP/6-31G(d,p)
 ---------------------------------

 -------
 ABSSPCT
 -------
 Symbolic Z-matrix:
 Charge =  0 Multiplicity = 1

                         Standard orientation:
 ---------------------------------------------------------------------
 Center     Atomic      Atomic             Coordinates (Angstroms)
 Number     Number       Type             X           Y           Z
 ---------------------------------------------------------------------
      1          6           0        0.814465   -1.129833    0.024029
      2          6           0        1.378141    0.121501    0.044073
      3          6           0        0.579903    1.238164   -0.013986
      4          6           0       -0.795670    1.099620    0.008821
      5          6           0       -1.407703   -0.121588   -0.012098
      6          6           0       -0.564241   -1.253247   -0.024340
      7          1           0        1.485150   -1.998093   -0.134333
      8          1           0       -1.148995   -2.191407   -0.052657
      9          1           0       -2.557920   -0.122400    0.178306
     10          1           0       -1.233993    2.136770   -0.060496
     11          1           0        1.050256    2.152448   -0.119305
     12          1           0        2.376131    0.294989    0.029493
 ---------------------------------------------------------------------

 SCF Done:  E(RB3LYP) =  -232.230316818     A.U. after   12 cycles

 Excitation energies and oscillator strengths:

 Excited State   1:      Singlet-A      5.6018 eV  221.33 nm  f=0.0007  <S**2>=0.000
      20 -> 22         0.40542
      20 -> 23         0.26014
      21 -> 22        -0.31348
      21 -> 23         0.41136
 This state for optimization and/or second-order correction.
 Total Energy, E(TD-HF/TD-DFT) =  -232.024455902
 Copying the excited state density for this state as the 1-particle RhoCI density.

 The electronic state is 1-A.
 Alpha  occ. eigenvalues --  -10.19507 -10.19250 -10.18891 -10.18440 -10.17443
 Alpha  occ. eigenvalues --  -10.17344  -0.85527  -0.74707  -0.74237  -0.60139
 Alpha  occ. eigenvalues --   -0.59932  -0.52010  -0.45972  -0.44109  -0.41659
 Alpha  occ. eigenvalues --   -0.41202  -0.36680  -0.34287  -0.32529  -0.25197
 Alpha  occ. eigenvalues --   -0.24630
 Alpha virt. eigenvalues --    0.00071   0.00591   0.08596   0.13561   0.14074
 Alpha virt. eigenvalues --    0.16779   0.16835   0.17747   0.21250   0.29562
 Alpha virt. eigenvalues --    0.31074   0.32121   0.33353   0.45978   0.52468

 Mulliken charges:
               1
     1  C   -0.081001
     2  C   -0.069157
     3  C   -0.070646
     4  C   -0.075951
     5  C   -0.095623
     6  C   -0.102625
     7  H    0.086422
     8  H    0.087010
     9  H    0.090172
    10  H    0.076939
    11  H    0.078495
    12  H    0.075965
 Sum of Mulliken charges =  -0.00000

 Dipole moment (field-independent basis, Debye):
    X=              0.1783    Y=              0.1378    Z=             -0.0902  Tot=              0.2427
 Quadrupole moment (field-independent basis, Debye-Ang):
   XX=            -31.5486   YY=            -31.9315   ZZ=            -38.2985
   XY=              0.4282   XZ=             -0.5045   YZ=             -0.0056

 Normal termination of Gaussian 16 at Fri Nov 10 18:24:56 2023.
