 Gaussian 16, Revision B.01,
 Gaussian 16:  EM64L-G16RevB.01 20-Dec-2017

 ---------------------------------
 # TD=(NStates=1) B3LYP/6-31G(d,p)
 ---------------------------------

 -------
 ABSSPCT
 -------
 Symbolic Z-matrix:
 Charge =  0 Multiplicity = 1

                         Standard orientation:
 ---------------------------------------------------------------------
 Center     Atomic      Atomic             Coordinates (Angstroms)
 Number     Number       Type             X           Y           Z
 ---------------------------------------------------------------------
      1          6           0       -1.319780   -0.415268   -0.031605
      2          6           0       -0.973640    0.904829   -0.001186
      3          6           0        0.285319    1.368205   -0.015599
      4          6           0        1.354815    0.441767   -0.023330
      5          6           0        0.982742   -0.935161   -0.003048
      6          6           0       -0.281339   -1.341268   -0.021791
      7          1           0       -2.390593   -0.754905    0.065588
      8          1           0       -0.522156   -2.260572    0.176674
      9          1           0        1.717374   -1.674363    0.173889
     10          1           0        2.377126    0.542732   -0.132374
     11          1           0        0.387117    2.388108    0.336125
     12          1           0       -1.857573    1.620368   -0.040541
 ---------------------------------------------------------------------

 SCF Done:  E(RB3LYP) =  -232.214302359     A.U. after   13 cycles

 Excitation energies and oscillator strengths:

 Excited State   1:      Singlet-A      5.5322 eV  224.12 nm  f=0.0038  <S**2>=0.000
      20 -> 22         0.51251
      20 -> 23        -0.11697
      21 -> 22         0.19364
      21 -> 23         0.43076
 This state for optimization and/or second-order correction.
 Total Energy, E(TD-HF/TD-DFT) =  -232.010999134
 Copying the excited state density for this state as the 1-particle RhoCI density.

 The electronic state is 1-A.
 Alpha  occ. eigenvalues --  -10.18879 -10.18640 -10.18485 -10.18123 -10.17611
 Alpha  occ. eigenvalues --  -10.16497  -0.85804  -0.75517  -0.74007  -0.61472
 Alpha  occ. eigenvalues --   -0.59228  -0.52681  -0.46098  -0.44334  -0.42579
 Alpha  occ. eigenvalues --   -0.40853  -0.37210  -0.34503  -0.32369  -0.25434
 Alpha  occ. eigenvalues --   -0.24227
 Alpha virt. eigenvalues --   -0.00917   0.01388   0.09068   0.14572   0.14662
 Alpha virt. eigenvalues --    0.16391   0.17680   0.19169   0.21354   0.29164
 Alpha virt. eigenvalues --    0.30709   0.32051   0.34741   0.46593   0.51577

 Mulliken charges:
               1
     1  C   -0.087041
     2  C   -0.078230
     3  C   -0.093605
     4  C   -0.090410
     5  C   -0.089941
     6  C   -0.047111
     7  H    0.083399
     8  H    0.069012
     9  H    0.077969
    10  H    0.089276
    11  H    0.091976
    12  H    0.074706
 Sum of Mulliken charges =  -0.00000

 Dipole moment (field-independent basis, Debye):
    X=              0.0009    Y=             -0.2095    Z=              0.3478  Tot=              0.4061
 Quadrupole moment (field-independent basis, Debye-Ang):
   XX=            -31.4714   YY=            -32.1692   ZZ=            -37.9382
   XY=             -0.1327   XZ=             -0.0870   YZ=             -0.0466

 Normal termination of Gaussian 16 at Fri Nov 10 16:39:33 2023.
