 Gaussian 16, Revision B.01,
 Gaussian 16:  EM64L-G16RevB.01 20-Dec-2017

 ---------------------------------
 # TD=(NStates=1) B3LYP/6-31G(d,p)
 ---------------------------------

 -------
 ABSSPCT
 -------
 Symbolic Z-matrix:
 Charge =  0 Multiplicity = 1

                         Standard orientation:
 ---------------------------------------------------------------------
 Center     Atomic      Atomic             Coordinates (Angstroms)
 Number     Number       Type             X           Y           Z
 ---------------------------------------------------------------------
      1          6           0       -1.398574    0.169147    0.086854
      2          6           0       -0.517000    1.232025   -0.059635
      3          6           0        0.893454    1.079346    0.006026
      4          6           0        1.336206   -0.204810   -0.019129
      5          6           0        0.527803   -1.256032    0.015841
      6          6           0       -0.828726   -1.093896   -0.035734
      7          1           0       -2.409790    0.578374   -0.020222
      8          1           0       -1.664411   -1.682420   -0.044746
      9          1           0        0.909710   -2.249785   -0.022843
     10          1           0        2.325643   -0.522682    0.072795
     11          1           0        1.470900    2.091791    0.091961
     12          1           0       -0.711027    2.230043   -0.042284
 ---------------------------------------------------------------------

 SCF Done:  E(RB3LYP) =  -232.198028549     A.U. after   13 cycles

 Excitation energies and oscillator strengths:

 Excited State   1:      Singlet-A      5.6411 eV  219.79 nm  f=0.0009  <S**2>=0.000
      20 -> 22        -0.45273
      20 -> 23        -0.15254
      21 -> 22        -0.19502
      21 -> 23         0.48287
 This state for optimization and/or second-order correction.
 Total Energy, E(TD-HF/TD-DFT) =  -231.990720375
 Copying the excited state density for this state as the 1-particle RhoCI density.

 The electronic state is 1-A.
 Alpha  occ. eigenvalues --  -10.19060 -10.18370 -10.17949 -10.17821 -10.17409
 Alpha  occ. eigenvalues --  -10.17326  -0.86101  -0.75481  -0.74435  -0.60933
 Alpha  occ. eigenvalues --   -0.60256  -0.52976  -0.47228  -0.42983  -0.41934
 Alpha  occ. eigenvalues --   -0.41398  -0.36803  -0.33369  -0.32545  -0.25454
 Alpha  occ. eigenvalues --   -0.24438
 Alpha virt. eigenvalues --    0.00076   0.00832   0.08998   0.13469   0.14731
 Alpha virt. eigenvalues --    0.16537   0.17323   0.19541   0.20648   0.29632
 Alpha virt. eigenvalues --    0.31041   0.32683   0.33523   0.44522   0.52067

 Mulliken charges:
               1
     1  C   -0.101690
     2  C   -0.072330
     3  C   -0.097378
     4  C   -0.064762
     5  C   -0.079400
     6  C   -0.079510
     7  H    0.093254
     8  H    0.085330
     9  H    0.086087
    10  H    0.075148
    11  H    0.086064
    12  H    0.069187
 Sum of Mulliken charges =  -0.00000

 Dipole moment (field-independent basis, Debye):
    X=             -0.0660    Y=              0.1063    Z=             -0.0008  Tot=              0.1252
 Quadrupole moment (field-independent basis, Debye-Ang):
   XX=            -31.9193   YY=            -31.6131   ZZ=            -38.0926
   XY=             -0.3659   XZ=              0.3771   YZ=              0.1377

 Normal termination of Gaussian 16 at Fri Nov 10 19:23:12 2023.
