 Gaussian 16, Revision B.01,
 Gaussian 16:  EM64L-G16RevB.01 20-Dec-2017

 ---------------------------------
 # TD=(NStates=1) B3LYP/6-31G(d,p)
 ---------------------------------

 -------
 ABSSPCT
 -------
 Symbolic Z-matrix:
 Charge =  0 Multiplicity = 1

                         Standard orientation:
 ---------------------------------------------------------------------
 Center     Atomic      Atomic             Coordinates (Angstroms)
 Number     Number       Type             X           Y           Z
 ---------------------------------------------------------------------
      1          6           0        0.388112   -1.288524    0.020997
      2          6           0        1.374037   -0.346142   -0.020651
      3          6           0        0.959721    0.983373    0.008377
      4          6           0       -0.431235    1.358281    0.032498
      5          6           0       -1.370554    0.291351   -0.042948
      6          6           0       -0.930396   -0.980260   -0.017829
      7          1           0        0.844157   -2.360942   -0.060044
      8          1           0       -1.841863   -1.786746   -0.047825
      9          1           0       -2.396757    0.369242    0.359531
     10          1           0       -0.825521    2.338734   -0.271753
     11          1           0        1.842819    1.844023    0.051527
     12          1           0        2.439054   -0.512784    0.085901
 ---------------------------------------------------------------------

 SCF Done:  E(RB3LYP) =  -232.201909782     A.U. after   13 cycles

 Excitation energies and oscillator strengths:

 Excited State   1:      Singlet-A      5.3753 eV  230.65 nm  f=0.0038  <S**2>=0.000
      20 -> 22         0.44888
      20 -> 23        -0.21372
      21 -> 22         0.31093
      21 -> 23         0.39449
 This state for optimization and/or second-order correction.
 Total Energy, E(TD-HF/TD-DFT) =  -232.004369720
 Copying the excited state density for this state as the 1-particle RhoCI density.

 The electronic state is 1-A.
 Alpha  occ. eigenvalues --  -10.20737 -10.19879 -10.19438 -10.19328 -10.18983
 Alpha  occ. eigenvalues --  -10.18678  -0.85737  -0.75171  -0.73349  -0.60431
 Alpha  occ. eigenvalues --   -0.58610  -0.50765  -0.45703  -0.43592  -0.41670
 Alpha  occ. eigenvalues --   -0.39385  -0.37669  -0.33414  -0.31893  -0.25460
 Alpha  occ. eigenvalues --   -0.24704
 Alpha virt. eigenvalues --   -0.01437   0.00181   0.06707   0.10991   0.12691
 Alpha virt. eigenvalues --    0.15451   0.16447   0.17633   0.18289   0.28207
 Alpha virt. eigenvalues --    0.29308   0.32154   0.33587   0.45662   0.49492

 Mulliken charges:
               1
     1  C   -0.083509
     2  C   -0.063306
     3  C   -0.093521
     4  C   -0.105977
     5  C   -0.095019
     6  C   -0.070915
     7  H    0.077598
     8  H    0.074932
     9  H    0.094559
    10  H    0.099691
    11  H    0.068527
    12  H    0.096940
 Sum of Mulliken charges =  -0.00000

 Dipole moment (field-independent basis, Debye):
    X=              0.1339    Y=             -0.0752    Z=              0.0675  Tot=              0.1678
 Quadrupole moment (field-independent basis, Debye-Ang):
   XX=            -31.3366   YY=            -33.2312   ZZ=            -38.5131
   XY=             -0.2368   XZ=             -0.2469   YZ=             -0.2618

 Normal termination of Gaussian 16 at Fri Nov 10 17:29:24 2023.
