 Gaussian 16, Revision B.01,
 Gaussian 16:  EM64L-G16RevB.01 20-Dec-2017

 ---------------------------------
 # TD=(NStates=1) B3LYP/6-31G(d,p)
 ---------------------------------

 -------
 ABSSPCT
 -------
 Symbolic Z-matrix:
 Charge =  0 Multiplicity = 1

                         Standard orientation:
 ---------------------------------------------------------------------
 Center     Atomic      Atomic             Coordinates (Angstroms)
 Number     Number       Type             X           Y           Z
 ---------------------------------------------------------------------
      1          6           0        1.006101    1.039822    0.032674
      2          6           0       -0.395245    1.272848    0.012085
      3          6           0       -1.362649    0.312965   -0.021205
      4          6           0       -1.008404   -1.008147   -0.006740
      5          6           0        0.411955   -1.307968    0.020401
      6          6           0        1.386456   -0.354663   -0.063016
      7          1           0        1.807525    1.742186    0.034415
      8          1           0        2.551344   -0.525627   -0.021818
      9          1           0        0.643246   -2.476707    0.112313
     10          1           0       -1.897323   -1.461439    0.069494
     11          1           0       -2.415848    0.571614   -0.071960
     12          1           0       -0.918229    2.420832    0.032365
 ---------------------------------------------------------------------

 SCF Done:  E(RB3LYP) =  -232.194398335     A.U. after   13 cycles

 Excitation energies and oscillator strengths:

 Excited State   1:      Singlet-A      5.4635 eV  226.93 nm  f=0.0036  <S**2>=0.000
      20 -> 22         0.47069
      20 -> 23         0.14770
      21 -> 22        -0.24330
      21 -> 23         0.44372
 This state for optimization and/or second-order correction.
 Total Energy, E(TD-HF/TD-DFT) =  -231.993619772
 Copying the excited state density for this state as the 1-particle RhoCI density.

 The electronic state is 1-A.
 Alpha  occ. eigenvalues --  -10.20776 -10.20473 -10.20305 -10.19966 -10.18398
 Alpha  occ. eigenvalues --  -10.18079  -0.84913  -0.75350  -0.72861  -0.61439
 Alpha  occ. eigenvalues --   -0.58281  -0.50574  -0.46717  -0.44279  -0.40885
 Alpha  occ. eigenvalues --   -0.39093  -0.36362  -0.35568  -0.30812  -0.25641
 Alpha  occ. eigenvalues --   -0.24224
 Alpha virt. eigenvalues --   -0.01105   0.00737   0.06711   0.10906   0.13714
 Alpha virt. eigenvalues --    0.14464   0.15639   0.17183   0.20235   0.27626
 Alpha virt. eigenvalues --    0.29066   0.30065   0.33889   0.46172   0.51888

 Mulliken charges:
               1
     1  C   -0.096315
     2  C   -0.069603
     3  C   -0.087256
     4  C   -0.048420
     5  C   -0.105535
     6  C   -0.084646
     7  H    0.098330
     8  H    0.090556
     9  H    0.077729
    10  H    0.083172
    11  H    0.089379
    12  H    0.052608
 Sum of Mulliken charges =  -0.00000

 Dipole moment (field-independent basis, Debye):
    X=             -0.0949    Y=              0.0042    Z=              0.0928  Tot=              0.1328
 Quadrupole moment (field-independent basis, Debye-Ang):
   XX=            -30.1060   YY=            -33.6687   ZZ=            -38.8244
   XY=              0.6460   XZ=              0.0607   YZ=             -0.2163

 Normal termination of Gaussian 16 at Fri Nov 10 19:29:48 2023.
