 Gaussian 16, Revision B.01,
 Gaussian 16:  EM64L-G16RevB.01 20-Dec-2017

 ---------------------------------
 # TD=(NStates=1) B3LYP/6-31G(d,p)
 ---------------------------------

 -------
 ABSSPCT
 -------
 Symbolic Z-matrix:
 Charge =  0 Multiplicity = 1

                         Standard orientation:
 ---------------------------------------------------------------------
 Center     Atomic      Atomic             Coordinates (Angstroms)
 Number     Number       Type             X           Y           Z
 ---------------------------------------------------------------------
      1          6           0       -0.185002    1.357327   -0.027922
      2          6           0       -1.333032    0.569160   -0.029406
      3          6           0       -1.117230   -0.860808    0.100779
      4          6           0        0.204097   -1.350401   -0.009069
      5          6           0        1.340431   -0.539782   -0.036981
      6          6           0        1.095752    0.891115   -0.004184
      7          1           0       -0.388783    2.470412    0.146149
      8          1           0        2.206812    1.467418    0.270707
      9          1           0        2.279868   -1.106970   -0.120451
     10          1           0        0.329710   -2.385449   -0.060942
     11          1           0       -2.051185   -1.622332    0.086751
     12          1           0       -2.406519    0.777254   -0.281519
 ---------------------------------------------------------------------

 SCF Done:  E(RB3LYP) =  -232.199395315     A.U. after   13 cycles

 Excitation energies and oscillator strengths:

 Excited State   1:      Singlet-A      5.2599 eV  235.72 nm  f=0.0024  <S**2>=0.000
      20 -> 22         0.54433
      21 -> 23         0.44886
 This state for optimization and/or second-order correction.
 Total Energy, E(TD-HF/TD-DFT) =  -232.006099357
 Copying the excited state density for this state as the 1-particle RhoCI density.

 The electronic state is 1-A.
 Alpha  occ. eigenvalues --  -10.21320 -10.20505 -10.20205 -10.19903 -10.19681
 Alpha  occ. eigenvalues --  -10.18464  -0.84319  -0.74328  -0.72926  -0.59711
 Alpha  occ. eigenvalues --   -0.58699  -0.50308  -0.45150  -0.44496  -0.41350
 Alpha  occ. eigenvalues --   -0.39379  -0.36426  -0.33850  -0.31557  -0.25076
 Alpha  occ. eigenvalues --   -0.24130
 Alpha virt. eigenvalues --   -0.01656   0.00459   0.06260   0.10395   0.13105
 Alpha virt. eigenvalues --    0.14100   0.15656   0.16542   0.19315   0.27306
 Alpha virt. eigenvalues --    0.28737   0.30203   0.33383   0.47098   0.51409

 Mulliken charges:
               1
     1  C   -0.101324
     2  C   -0.087346
     3  C   -0.097560
     4  C   -0.068299
     5  C   -0.087462
     6  C   -0.083129
     7  H    0.087744
     8  H    0.078690
     9  H    0.096182
    10  H    0.079574
    11  H    0.079770
    12  H    0.103159
 Sum of Mulliken charges =  -0.00000

 Dipole moment (field-independent basis, Debye):
    X=             -0.0698    Y=             -0.3374    Z=             -0.0216  Tot=              0.3452
 Quadrupole moment (field-independent basis, Debye-Ang):
   XX=            -31.0894   YY=            -32.6914   ZZ=            -38.9031
   XY=             -0.4467   XZ=              0.6626   YZ=              0.5423

 Normal termination of Gaussian 16 at Fri Nov 10 18:16:48 2023.
