 Gaussian 16, Revision B.01,
 Gaussian 16:  EM64L-G16RevB.01 20-Dec-2017

 ---------------------------------
 # TD=(NStates=1) B3LYP/6-31G(d,p)
 ---------------------------------

 -------
 ABSSPCT
 -------
 Symbolic Z-matrix:
 Charge =  0 Multiplicity = 1

                         Standard orientation:
 ---------------------------------------------------------------------
 Center     Atomic      Atomic             Coordinates (Angstroms)
 Number     Number       Type             X           Y           Z
 ---------------------------------------------------------------------
      1          6           0        0.575669    1.274417   -0.004839
      2          6           0       -0.834175    1.115814    0.018060
      3          6           0       -1.423706   -0.192978   -0.032118
      4          6           0       -0.534044   -1.240690    0.046166
      5          6           0        0.846404   -1.117589   -0.057941
      6          6           0        1.404038    0.151533    0.063451
      7          1           0        0.946338    2.224447   -0.048116
      8          1           0        2.306950    0.266930   -0.052533
      9          1           0        1.442048   -1.909767   -0.183429
     10          1           0       -1.040843   -2.393947    0.247319
     11          1           0       -2.410333   -0.216888   -0.205286
     12          1           0       -1.449277    2.086181    0.045370
 ---------------------------------------------------------------------

 SCF Done:  E(RB3LYP) =  -232.184552469     A.U. after   13 cycles

 Excitation energies and oscillator strengths:

 Excited State   1:      Singlet-A      5.2787 eV  234.88 nm  f=0.0027  <S**2>=0.000
      20 -> 22        -0.26657
      20 -> 23        -0.36828
      21 -> 22         0.46730
      21 -> 23        -0.27258
 This state for optimization and/or second-order correction.
 Total Energy, E(TD-HF/TD-DFT) =  -231.990564276
 Copying the excited state density for this state as the 1-particle RhoCI density.

 The electronic state is 1-A.
 Alpha  occ. eigenvalues --  -10.20339 -10.19660 -10.18551 -10.18104 -10.18024
 Alpha  occ. eigenvalues --  -10.17081  -0.84772  -0.75103  -0.73666  -0.61577
 Alpha  occ. eigenvalues --   -0.59332  -0.52595  -0.47527  -0.44015  -0.42447
 Alpha  occ. eigenvalues --   -0.40805  -0.36340  -0.34963  -0.32443  -0.24726
 Alpha  occ. eigenvalues --   -0.23965
 Alpha virt. eigenvalues --   -0.00559   0.00084   0.08132   0.13077   0.15060
 Alpha virt. eigenvalues --    0.16268   0.17783   0.18926   0.21194   0.28684
 Alpha virt. eigenvalues --    0.30508   0.31342   0.33220   0.46607   0.50629

 Mulliken charges:
               1
     1  C   -0.076201
     2  C   -0.106912
     3  C   -0.059157
     4  C   -0.089386
     5  C   -0.068026
     6  C   -0.045780
     7  H    0.079528
     8  H    0.058345
     9  H    0.082506
    10  H    0.055388
    11  H    0.090184
    12  H    0.079512
 Sum of Mulliken charges =  -0.00000

 Dipole moment (field-independent basis, Debye):
    X=              0.1460    Y=              0.1817    Z=             -0.1843  Tot=              0.2972
 Quadrupole moment (field-independent basis, Debye-Ang):
   XX=            -31.2085   YY=            -32.0494   ZZ=            -38.2444
   XY=             -0.3711   XZ=             -0.1473   YZ=             -0.0649

 Normal termination of Gaussian 16 at Fri Nov 10 18:21:29 2023.
