 Gaussian 16, Revision B.01,
 Gaussian 16:  EM64L-G16RevB.01 20-Dec-2017

 ---------------------------------
 # TD=(NStates=1) B3LYP/6-31G(d,p)
 ---------------------------------

 -------
 ABSSPCT
 -------
 Symbolic Z-matrix:
 Charge =  0 Multiplicity = 1

                         Standard orientation:
 ---------------------------------------------------------------------
 Center     Atomic      Atomic             Coordinates (Angstroms)
 Number     Number       Type             X           Y           Z
 ---------------------------------------------------------------------
      1          6           0        1.117814   -0.898172   -0.044300
      2          6           0        1.321817    0.463037   -0.036401
      3          6           0        0.238248    1.399450    0.109551
      4          6           0       -1.045099    0.841159   -0.084218
      5          6           0       -1.353710   -0.501918    0.022614
      6          6           0       -0.239610   -1.375414    0.013925
      7          1           0        1.872371   -1.462886   -0.232000
      8          1           0       -0.424847   -2.414967    0.295039
      9          1           0       -2.407434   -0.611746    0.012232
     10          1           0       -1.927319    1.604750   -0.151804
     11          1           0        0.429198    2.489246    0.010897
     12          1           0        2.221273    0.826752    0.178612
 ---------------------------------------------------------------------

 SCF Done:  E(RB3LYP) =  -232.204506576     A.U. after   13 cycles

 Excitation energies and oscillator strengths:

 Excited State   1:      Singlet-A      5.2567 eV  235.86 nm  f=0.0002  <S**2>=0.000
      20 -> 22         0.50219
      21 -> 23         0.49017
 This state for optimization and/or second-order correction.
 Total Energy, E(TD-HF/TD-DFT) =  -232.011327535
 Copying the excited state density for this state as the 1-particle RhoCI density.

 The electronic state is 1-A.
 Alpha  occ. eigenvalues --  -10.19906 -10.19267 -10.19218 -10.18872 -10.18097
 Alpha  occ. eigenvalues --  -10.17975  -0.84366  -0.75120  -0.73112  -0.60864
 Alpha  occ. eigenvalues --   -0.59614  -0.51993  -0.46479  -0.43851  -0.42491
 Alpha  occ. eigenvalues --   -0.41011  -0.36068  -0.34043  -0.32503  -0.25064
 Alpha  occ. eigenvalues --   -0.23929
 Alpha virt. eigenvalues --   -0.01263   0.00113   0.09130   0.13598   0.14714
 Alpha virt. eigenvalues --    0.15518   0.17148   0.18921   0.19978   0.27960
 Alpha virt. eigenvalues --    0.28811   0.31838   0.32357   0.45322   0.47254

 Mulliken charges:
               1
     1  C   -0.052967
     2  C   -0.087198
     3  C   -0.094213
     4  C   -0.090945
     5  C   -0.057840
     6  C   -0.119287
     7  H    0.080551
     8  H    0.086405
     9  H    0.097588
    10  H    0.064952
    11  H    0.090597
    12  H    0.082359
 Sum of Mulliken charges =  -0.00000

 Dipole moment (field-independent basis, Debye):
    X=              0.0731    Y=              0.0119    Z=              0.0603  Tot=              0.0955
 Quadrupole moment (field-independent basis, Debye-Ang):
   XX=            -31.1643   YY=            -32.1727   ZZ=            -38.3578
   XY=             -0.0718   XZ=             -0.0146   YZ=             -0.3096

 Normal termination of Gaussian 16 at Fri Nov 10 18:03:39 2023.
