 Gaussian 16, Revision B.01,
 Gaussian 16:  EM64L-G16RevB.01 20-Dec-2017

 ---------------------------------
 # TD=(NStates=1) B3LYP/6-31G(d,p)
 ---------------------------------

 -------
 ABSSPCT
 -------
 Symbolic Z-matrix:
 Charge =  0 Multiplicity = 1

                         Standard orientation:
 ---------------------------------------------------------------------
 Center     Atomic      Atomic             Coordinates (Angstroms)
 Number     Number       Type             X           Y           Z
 ---------------------------------------------------------------------
      1          6           0        1.359234    0.175264    0.028605
      2          6           0        0.606548    1.223440   -0.066735
      3          6           0       -0.762759    1.122655   -0.013748
      4          6           0       -1.443000   -0.118656    0.050973
      5          6           0       -0.593223   -1.271655   -0.018914
      6          6           0        0.819480   -1.142361   -0.028865
      7          1           0        2.460583   -0.003352    0.240709
      8          1           0        1.443453   -1.913086    0.062748
      9          1           0       -0.972782   -2.231099   -0.154350
     10          1           0       -2.521819   -0.060075    0.124690
     11          1           0       -1.359255    1.942676    0.031309
     12          1           0        1.032134    2.332823   -0.012996
 ---------------------------------------------------------------------

 SCF Done:  E(RB3LYP) =  -232.209993161     A.U. after   13 cycles

 Excitation energies and oscillator strengths:

 Excited State   1:      Singlet-A      5.4801 eV  226.24 nm  f=0.0002  <S**2>=0.000
      20 -> 22         0.48611
      21 -> 23         0.51124
 This state for optimization and/or second-order correction.
 Total Energy, E(TD-HF/TD-DFT) =  -232.008603574
 Copying the excited state density for this state as the 1-particle RhoCI density.

 The electronic state is 1-A.
 Alpha  occ. eigenvalues --  -10.19347 -10.18959 -10.18756 -10.18438 -10.17981
 Alpha  occ. eigenvalues --  -10.17944  -0.85180  -0.74405  -0.74264  -0.60854
 Alpha  occ. eigenvalues --   -0.59829  -0.51725  -0.46524  -0.45099  -0.41344
 Alpha  occ. eigenvalues --   -0.40929  -0.36433  -0.35570  -0.31329  -0.25227
 Alpha  occ. eigenvalues --   -0.24109
 Alpha virt. eigenvalues --   -0.00341   0.00529   0.08396   0.13707   0.14435
 Alpha virt. eigenvalues --    0.15924   0.17082   0.19934   0.20582   0.28606
 Alpha virt. eigenvalues --    0.29132   0.31842   0.34430   0.46145   0.52105

 Mulliken charges:
               1
     1  C   -0.073047
     2  C   -0.075304
     3  C   -0.082515
     4  C   -0.080980
     5  C   -0.099355
     6  C   -0.075274
     7  H    0.083351
     8  H    0.078857
     9  H    0.080614
    10  H    0.091695
    11  H    0.078342
    12  H    0.073616
 Sum of Mulliken charges =  -0.00000

 Dipole moment (field-independent basis, Debye):
    X=             -0.1042    Y=             -0.0997    Z=              0.1751  Tot=              0.2269
 Quadrupole moment (field-independent basis, Debye-Ang):
   XX=            -31.4250   YY=            -31.8761   ZZ=            -38.3040
   XY=             -1.0950   XZ=              0.3351   YZ=              0.1815

 Normal termination of Gaussian 16 at Fri Nov 10 16:02:48 2023.
