 Gaussian 16, Revision B.01,
 Gaussian 16:  EM64L-G16RevB.01 20-Dec-2017

 ---------------------------------
 # TD=(NStates=1) B3LYP/6-31G(d,p)
 ---------------------------------

 -------
 ABSSPCT
 -------
 Symbolic Z-matrix:
 Charge =  0 Multiplicity = 1

                         Standard orientation:
 ---------------------------------------------------------------------
 Center     Atomic      Atomic             Coordinates (Angstroms)
 Number     Number       Type             X           Y           Z
 ---------------------------------------------------------------------
      1          6           0        1.406140   -0.094379    0.018753
      2          6           0        0.600466   -1.241151    0.044968
      3          6           0       -0.782604   -1.109222   -0.098884
      4          6           0       -1.406632    0.090997    0.017662
      5          6           0       -0.635317    1.242231    0.036449
      6          6           0        0.844638    1.117763   -0.068165
      7          1           0        2.406880   -0.259081    0.272681
      8          1           0        1.326864    2.057434   -0.132951
      9          1           0       -1.020057    2.279784   -0.015328
     10          1           0       -2.503407    0.084491    0.276958
     11          1           0       -1.455608   -1.923220   -0.063681
     12          1           0        1.085179   -2.276839   -0.042379
 ---------------------------------------------------------------------

 SCF Done:  E(RB3LYP) =  -232.228097410     A.U. after   13 cycles

 Excitation energies and oscillator strengths:

 Excited State   1:      Singlet-A      5.4332 eV  228.20 nm  f=0.0003  <S**2>=0.000
      20 -> 22        -0.48402
      21 -> 23         0.51419
 This state for optimization and/or second-order correction.
 Total Energy, E(TD-HF/TD-DFT) =  -232.028432026
 Copying the excited state density for this state as the 1-particle RhoCI density.

 The electronic state is 1-A.
 Alpha  occ. eigenvalues --  -10.19498 -10.19336 -10.18800 -10.18753 -10.18114
 Alpha  occ. eigenvalues --  -10.17968  -0.85021  -0.75414  -0.72914  -0.60325
 Alpha  occ. eigenvalues --   -0.59332  -0.51871  -0.45674  -0.44066  -0.42657
 Alpha  occ. eigenvalues --   -0.40290  -0.36857  -0.34345  -0.32215  -0.25636
 Alpha  occ. eigenvalues --   -0.23792
 Alpha virt. eigenvalues --   -0.00900   0.00655   0.09137   0.12774   0.14226
 Alpha virt. eigenvalues --    0.15980   0.18001   0.18627   0.19509   0.27225
 Alpha virt. eigenvalues --    0.30833   0.31863   0.33701   0.46373   0.51384

 Mulliken charges:
               1
     1  C   -0.072391
     2  C   -0.098609
     3  C   -0.073354
     4  C   -0.079585
     5  C   -0.104303
     6  C   -0.082804
     7  H    0.088158
     8  H    0.085477
     9  H    0.085743
    10  H    0.087778
    11  H    0.079740
    12  H    0.084151
 Sum of Mulliken charges =   0.00000

 Dipole moment (field-independent basis, Debye):
    X=              0.0006    Y=              0.0430    Z=              0.1704  Tot=              0.1757
 Quadrupole moment (field-independent basis, Debye-Ang):
   XX=            -31.7680   YY=            -31.6779   ZZ=            -38.3389
   XY=              0.1415   XZ=             -0.1144   YZ=             -0.1387

 Normal termination of Gaussian 16 at Fri Nov 10 19:14:14 2023.
