 Gaussian 16, Revision B.01,
 Gaussian 16:  EM64L-G16RevB.01 20-Dec-2017

 ---------------------------------
 # TD=(NStates=1) B3LYP/6-31G(d,p)
 ---------------------------------

 -------
 ABSSPCT
 -------
 Symbolic Z-matrix:
 Charge =  0 Multiplicity = 1

                         Standard orientation:
 ---------------------------------------------------------------------
 Center     Atomic      Atomic             Coordinates (Angstroms)
 Number     Number       Type             X           Y           Z
 ---------------------------------------------------------------------
      1          6           0        1.129385    0.886242    0.003164
      2          6           0        1.287296   -0.592624    0.015859
      3          6           0        0.184177   -1.344927   -0.015122
      4          6           0       -1.157938   -0.856255   -0.036114
      5          6           0       -1.285053    0.456416    0.040426
      6          6           0       -0.235581    1.402622   -0.037167
      7          1           0        1.983628    1.617110    0.035729
      8          1           0       -0.332204    2.467178   -0.007875
      9          1           0       -2.195224    0.944435    0.058794
     10          1           0       -1.893989   -1.460495    0.047295
     11          1           0        0.559627   -2.360307    0.037580
     12          1           0        2.344451   -0.916772    0.002199
 ---------------------------------------------------------------------

 SCF Done:  E(RB3LYP) =  -232.206362338     A.U. after   14 cycles

 Excitation energies and oscillator strengths:

 Excited State   1:      Singlet-A      5.4454 eV  227.69 nm  f=0.0018  <S**2>=0.000
      20 -> 22         0.51713
      21 -> 22        -0.12455
      21 -> 23         0.45951
 This state for optimization and/or second-order correction.
 Total Energy, E(TD-HF/TD-DFT) =  -232.006247741
 Copying the excited state density for this state as the 1-particle RhoCI density.

 The electronic state is 1-A.
 Alpha  occ. eigenvalues --  -10.20070 -10.19058 -10.18987 -10.18421 -10.17862
 Alpha  occ. eigenvalues --  -10.17623  -0.84638  -0.74959  -0.73359  -0.61111
 Alpha  occ. eigenvalues --   -0.58829  -0.52608  -0.46521  -0.44080  -0.42605
 Alpha  occ. eigenvalues --   -0.41217  -0.35858  -0.34168  -0.32112  -0.25229
 Alpha  occ. eigenvalues --   -0.23909
 Alpha virt. eigenvalues --   -0.00975   0.01083   0.09682   0.14318   0.14837
 Alpha virt. eigenvalues --    0.15577   0.18103   0.18387   0.19530   0.28217
 Alpha virt. eigenvalues --    0.29288   0.29533   0.33493   0.46070   0.51372

 Mulliken charges:
               1
     1  C   -0.108835
     2  C   -0.081266
     3  C   -0.098841
     4  C   -0.035224
     5  C   -0.083898
     6  C   -0.088492
     7  H    0.084428
     8  H    0.088605
     9  H    0.077749
    10  H    0.073562
    11  H    0.081286
    12  H    0.090924
 Sum of Mulliken charges =  -0.00000

 Dipole moment (field-independent basis, Debye):
    X=              0.0236    Y=              0.0793    Z=              0.1128  Tot=              0.1399
 Quadrupole moment (field-independent basis, Debye-Ang):
   XX=            -31.2528   YY=            -31.5782   ZZ=            -38.4502
   XY=             -0.0130   XZ=             -0.0926   YZ=             -0.0499

 Normal termination of Gaussian 16 at Fri Nov 10 18:32:26 2023.
