 Gaussian 16, Revision B.01,
 Gaussian 16:  EM64L-G16RevB.01 20-Dec-2017

 ---------------------------------
 # TD=(NStates=1) B3LYP/6-31G(d,p)
 ---------------------------------

 -------
 ABSSPCT
 -------
 Symbolic Z-matrix:
 Charge =  0 Multiplicity = 1

                         Standard orientation:
 ---------------------------------------------------------------------
 Center     Atomic      Atomic             Coordinates (Angstroms)
 Number     Number       Type             X           Y           Z
 ---------------------------------------------------------------------
      1          6           0        0.970339   -0.924992   -0.050956
      2          6           0        1.401164    0.377627   -0.066196
      3          6           0        0.355295    1.327460    0.094097
      4          6           0       -0.983423    0.936175   -0.069993
      5          6           0       -1.325063   -0.325788   -0.085053
      6          6           0       -0.379530   -1.340262    0.089578
      7          1           0        1.784103   -1.625077   -0.252094
      8          1           0       -0.618429   -2.336514    0.251370
      9          1           0       -2.405644   -0.700922    0.220145
     10          1           0       -1.821456    1.605198   -0.142483
     11          1           0        0.449756    2.385364    0.226977
     12          1           0        2.378974    0.370625    0.227225
 ---------------------------------------------------------------------

 SCF Done:  E(RB3LYP) =  -232.203062648     A.U. after   13 cycles

 Excitation energies and oscillator strengths:

 Excited State   1:      Singlet-A      5.3618 eV  231.24 nm  f=0.0041  <S**2>=0.000
      20 -> 22         0.43141
      20 -> 23        -0.16048
      21 -> 22         0.25092
      21 -> 23         0.47404
 This state for optimization and/or second-order correction.
 Total Energy, E(TD-HF/TD-DFT) =  -232.006020079
 Copying the excited state density for this state as the 1-particle RhoCI density.

 The electronic state is 1-A.
 Alpha  occ. eigenvalues --  -10.19371 -10.18646 -10.18499 -10.18310 -10.18279
 Alpha  occ. eigenvalues --  -10.17916  -0.85665  -0.75779  -0.73519  -0.61819
 Alpha  occ. eigenvalues --   -0.58333  -0.52517  -0.46016  -0.44029  -0.42109
 Alpha  occ. eigenvalues --   -0.41184  -0.37318  -0.34056  -0.31732  -0.25687
 Alpha  occ. eigenvalues --   -0.23881
 Alpha virt. eigenvalues --   -0.01093   0.00310   0.09161   0.12515   0.15202
 Alpha virt. eigenvalues --    0.15866   0.17422   0.19233   0.20094   0.28662
 Alpha virt. eigenvalues --    0.29712   0.31631   0.33917   0.45735   0.49714

 Mulliken charges:
               1
     1  C   -0.109590
     2  C   -0.072097
     3  C   -0.100094
     4  C   -0.072860
     5  C   -0.084647
     6  C   -0.066724
     7  H    0.078525
     8  H    0.085628
     9  H    0.072781
    10  H    0.088388
    11  H    0.083178
    12  H    0.097513
 Sum of Mulliken charges =  -0.00000

 Dipole moment (field-independent basis, Debye):
    X=             -0.0139    Y=             -0.1043    Z=              0.3577  Tot=              0.3729
 Quadrupole moment (field-independent basis, Debye-Ang):
   XX=            -31.8559   YY=            -32.2144   ZZ=            -38.0398
   XY=             -0.5010   XZ=             -0.0574   YZ=             -0.0252

 Normal termination of Gaussian 16 at Fri Nov 10 17:25:37 2023.
