 Gaussian 16, Revision B.01,
 Gaussian 16:  EM64L-G16RevB.01 20-Dec-2017

 ---------------------------------
 # TD=(NStates=1) B3LYP/6-31G(d,p)
 ---------------------------------

 -------
 ABSSPCT
 -------
 Symbolic Z-matrix:
 Charge =  0 Multiplicity = 1

                         Standard orientation:
 ---------------------------------------------------------------------
 Center     Atomic      Atomic             Coordinates (Angstroms)
 Number     Number       Type             X           Y           Z
 ---------------------------------------------------------------------
      1          6           0        0.018237   -1.371661   -0.004724
      2          6           0        1.259146   -0.675939   -0.045006
      3          6           0        1.212220    0.695215   -0.012346
      4          6           0       -0.033204    1.369819    0.054959
      5          6           0       -1.218776    0.648574   -0.052490
      6          6           0       -1.214987   -0.733411    0.019558
      7          1           0       -0.019815   -2.280319    0.059075
      8          1           0       -2.333816   -1.130350    0.070222
      9          1           0       -2.062889    1.368106   -0.039553
     10          1           0        0.019110    2.413840    0.019390
     11          1           0        2.088868    1.308299    0.022201
     12          1           0        2.172724   -1.275158    0.108955
 ---------------------------------------------------------------------

 SCF Done:  E(RB3LYP) =  -232.204405149     A.U. after   12 cycles

 Excitation energies and oscillator strengths:

 Excited State   1:      Singlet-A      5.4881 eV  225.92 nm  f=0.0002  <S**2>=0.000
      20 -> 22         0.48643
      21 -> 23         0.49966
 This state for optimization and/or second-order correction.
 Total Energy, E(TD-HF/TD-DFT) =  -232.002722829
 Copying the excited state density for this state as the 1-particle RhoCI density.

 The electronic state is 1-A.
 Alpha  occ. eigenvalues --  -10.19725 -10.19165 -10.18558 -10.18456 -10.18007
 Alpha  occ. eigenvalues --  -10.17480  -0.84874  -0.74469  -0.74294  -0.61178
 Alpha  occ. eigenvalues --   -0.59494  -0.52034  -0.46863  -0.43564  -0.41691
 Alpha  occ. eigenvalues --   -0.41323  -0.36026  -0.34422  -0.32920  -0.25049
 Alpha  occ. eigenvalues --   -0.24331
 Alpha virt. eigenvalues --   -0.00179   0.00375   0.08807   0.13115   0.14368
 Alpha virt. eigenvalues --    0.15980   0.17105   0.19706   0.20315   0.29591
 Alpha virt. eigenvalues --    0.30561   0.31698   0.32323   0.45740   0.52051

 Mulliken charges:
               1
     1  C   -0.065139
     2  C   -0.078688
     3  C   -0.092306
     4  C   -0.074243
     5  C   -0.083438
     6  C   -0.087020
     7  H    0.057884
     8  H    0.089074
     9  H    0.082053
    10  H    0.080624
    11  H    0.081212
    12  H    0.089988
 Sum of Mulliken charges =  -0.00000

 Dipole moment (field-independent basis, Debye):
    X=              0.0435    Y=              0.0877    Z=              0.1503  Tot=              0.1794
 Quadrupole moment (field-independent basis, Debye-Ang):
   XX=            -31.6205   YY=            -31.4950   ZZ=            -38.3782
   XY=             -0.1770   XZ=              0.1677   YZ=             -0.2899

 Normal termination of Gaussian 16 at Fri Nov 10 17:00:59 2023.
