 Gaussian 16, Revision B.01,
 Gaussian 16:  EM64L-G16RevB.01 20-Dec-2017

 ---------------------------------
 # TD=(NStates=1) B3LYP/6-31G(d,p)
 ---------------------------------

 -------
 ABSSPCT
 -------
 Symbolic Z-matrix:
 Charge =  0 Multiplicity = 1

                         Standard orientation:
 ---------------------------------------------------------------------
 Center     Atomic      Atomic             Coordinates (Angstroms)
 Number     Number       Type             X           Y           Z
 ---------------------------------------------------------------------
      1          6           0       -0.453393   -1.254101    0.091393
      2          6           0        0.887465   -1.137301    0.004155
      3          6           0        1.360646    0.257570   -0.028963
      4          6           0        0.520323    1.315587   -0.089179
      5          6           0       -0.886587    1.099493   -0.053915
      6          6           0       -1.445731   -0.269855    0.012252
      7          1           0       -0.891446   -2.354451   -0.155007
      8          1           0       -2.551802   -0.342934    0.008144
      9          1           0       -1.569312    1.994767    0.105293
     10          1           0        1.133876    2.339645    0.419127
     11          1           0        2.401135    0.173747    0.147336
     12          1           0        1.581216   -1.879138   -0.139346
 ---------------------------------------------------------------------

 SCF Done:  E(RB3LYP) =  -232.176769988     A.U. after   13 cycles

 Excitation energies and oscillator strengths:

 Excited State   1:      Singlet-A      5.1144 eV  242.42 nm  f=0.0006  <S**2>=0.000
      20 -> 22         0.51037
      21 -> 22        -0.11111
      21 -> 23         0.47178
 This state for optimization and/or second-order correction.
 Total Energy, E(TD-HF/TD-DFT) =  -231.988817571
 Copying the excited state density for this state as the 1-particle RhoCI density.

 The electronic state is 1-A.
 Alpha  occ. eigenvalues --  -10.20994 -10.20817 -10.20683 -10.19969 -10.18929
 Alpha  occ. eigenvalues --  -10.18633  -0.84466  -0.74172  -0.73576  -0.60429
 Alpha  occ. eigenvalues --   -0.58817  -0.50199  -0.46593  -0.44787  -0.40633
 Alpha  occ. eigenvalues --   -0.39546  -0.36272  -0.34863  -0.30246  -0.25431
 Alpha  occ. eigenvalues --   -0.23789
 Alpha virt. eigenvalues --   -0.02076  -0.00299   0.06465   0.10289   0.13277
 Alpha virt. eigenvalues --    0.14242   0.16285   0.16440   0.19858   0.26499
 Alpha virt. eigenvalues --    0.27523   0.30427   0.34952   0.44962   0.47687

 Mulliken charges:
               1
     1  C   -0.083357
     2  C   -0.072436
     3  C   -0.074598
     4  C   -0.082487
     5  C   -0.116243
     6  C   -0.077926
     7  H    0.055562
     8  H    0.106395
     9  H    0.091064
    10  H    0.071377
    11  H    0.088521
    12  H    0.094128
 Sum of Mulliken charges =  -0.00000

 Dipole moment (field-independent basis, Debye):
    X=              0.0521    Y=             -0.1683    Z=              0.2236  Tot=              0.2846
 Quadrupole moment (field-independent basis, Debye-Ang):
   XX=            -30.8336   YY=            -33.5967   ZZ=            -38.6965
   XY=             -1.0765   XZ=              0.4141   YZ=              1.3744

 Normal termination of Gaussian 16 at Fri Nov 10 19:12:40 2023.
