 Gaussian 16, Revision B.01,
 Gaussian 16:  EM64L-G16RevB.01 20-Dec-2017

 ---------------------------------
 # TD=(NStates=1) B3LYP/6-31G(d,p)
 ---------------------------------

 -------
 ABSSPCT
 -------
 Symbolic Z-matrix:
 Charge =  0 Multiplicity = 1

                         Standard orientation:
 ---------------------------------------------------------------------
 Center     Atomic      Atomic             Coordinates (Angstroms)
 Number     Number       Type             X           Y           Z
 ---------------------------------------------------------------------
      1          6           0        1.331607   -0.612555   -0.003947
      2          6           0        1.154873    0.802458   -0.009310
      3          6           0       -0.095924    1.384815    0.059812
      4          6           0       -1.313976    0.587979   -0.060968
      5          6           0       -1.148434   -0.787433   -0.007033
      6          6           0        0.108422   -1.352889    0.007244
      7          1           0        2.208723   -1.113421   -0.176423
      8          1           0        0.285959   -2.339896    0.265296
      9          1           0       -2.161518   -1.313853   -0.033914
     10          1           0       -2.454490    0.832029   -0.004942
     11          1           0       -0.152565    2.382268    0.112050
     12          1           0        2.054481    1.418620   -0.076857
 ---------------------------------------------------------------------

 SCF Done:  E(RB3LYP) =  -232.215478714     A.U. after   13 cycles

 Excitation energies and oscillator strengths:

 Excited State   1:      Singlet-A      5.3207 eV  233.02 nm  f=0.0019  <S**2>=0.000
      20 -> 22         0.50794
      21 -> 22        -0.15325
      21 -> 23         0.45799
 This state for optimization and/or second-order correction.
 Total Energy, E(TD-HF/TD-DFT) =  -232.019945627
 Copying the excited state density for this state as the 1-particle RhoCI density.

 The electronic state is 1-A.
 Alpha  occ. eigenvalues --  -10.20080 -10.19162 -10.18971 -10.18826 -10.18754
 Alpha  occ. eigenvalues --  -10.18277  -0.84252  -0.74365  -0.73702  -0.60886
 Alpha  occ. eigenvalues --   -0.58926  -0.51938  -0.46500  -0.44061  -0.41785
 Alpha  occ. eigenvalues --   -0.40553  -0.36086  -0.34983  -0.31901  -0.25092
 Alpha  occ. eigenvalues --   -0.23942
 Alpha virt. eigenvalues --   -0.01275   0.00621   0.08101   0.13499   0.14409
 Alpha virt. eigenvalues --    0.15705   0.17966   0.18345   0.19690   0.28203
 Alpha virt. eigenvalues --    0.28973   0.30222   0.33420   0.46659   0.50084

 Mulliken charges:
               1
     1  C   -0.086871
     2  C   -0.084986
     3  C   -0.085963
     4  C   -0.089593
     5  C   -0.073826
     6  C   -0.090174
     7  H    0.092382
     8  H    0.081841
     9  H    0.082365
    10  H    0.090032
    11  H    0.081114
    12  H    0.083679
 Sum of Mulliken charges =  -0.00000

 Dipole moment (field-independent basis, Debye):
    X=              0.0635    Y=             -0.0152    Z=              0.0527  Tot=              0.0839
 Quadrupole moment (field-independent basis, Debye-Ang):
   XX=            -30.6196   YY=            -32.5278   ZZ=            -38.5102
   XY=             -0.2027   XZ=             -0.3725   YZ=             -0.1523

 Normal termination of Gaussian 16 at Fri Nov 10 16:57:43 2023.
