 Gaussian 16, Revision B.01,
 Gaussian 16:  EM64L-G16RevB.01 20-Dec-2017

 ---------------------------------
 # TD=(NStates=1) B3LYP/6-31G(d,p)
 ---------------------------------

 -------
 ABSSPCT
 -------
 Symbolic Z-matrix:
 Charge =  0 Multiplicity = 1

                         Standard orientation:
 ---------------------------------------------------------------------
 Center     Atomic      Atomic             Coordinates (Angstroms)
 Number     Number       Type             X           Y           Z
 ---------------------------------------------------------------------
      1          6           0        0.888312    0.969321   -0.017618
      2          6           0       -0.453353    1.327206   -0.078082
      3          6           0       -1.391552    0.286807    0.115963
      4          6           0       -0.917248   -1.048728   -0.037056
      5          6           0        0.413548   -1.304516   -0.044877
      6          6           0        1.428628   -0.247263    0.038027
      7          1           0        1.738567    1.742059    0.181262
      8          1           0        2.562506   -0.357925   -0.003789
      9          1           0        0.791885   -2.184839    0.073265
     10          1           0       -1.537532   -2.043861   -0.034427
     11          1           0       -2.604030    0.464768    0.022731
     12          1           0       -0.761408    2.482833   -0.097184
 ---------------------------------------------------------------------

 SCF Done:  E(RB3LYP) =  -232.187305687     A.U. after   13 cycles

 Excitation energies and oscillator strengths:

 Excited State   1:      Singlet-A      5.3956 eV  229.79 nm  f=0.0068  <S**2>=0.000
      20 -> 22         0.50098
      20 -> 23         0.14785
      21 -> 22        -0.27065
      21 -> 23         0.39031
 This state for optimization and/or second-order correction.
 Total Energy, E(TD-HF/TD-DFT) =  -231.989020657
 Copying the excited state density for this state as the 1-particle RhoCI density.

 The electronic state is 1-A.
 Alpha  occ. eigenvalues --  -10.21268 -10.20650 -10.19831 -10.19238 -10.18758
 Alpha  occ. eigenvalues --  -10.17771  -0.85165  -0.74535  -0.73800  -0.60485
 Alpha  occ. eigenvalues --   -0.58129  -0.50997  -0.45242  -0.43673  -0.41103
 Alpha  occ. eigenvalues --   -0.40257  -0.36484  -0.34451  -0.31404  -0.25327
 Alpha  occ. eigenvalues --   -0.24472
 Alpha virt. eigenvalues --   -0.01462   0.00885   0.06306   0.11172   0.12963
 Alpha virt. eigenvalues --    0.14296   0.15427   0.17661   0.19577   0.27515
 Alpha virt. eigenvalues --    0.29701   0.30943   0.33930   0.45706   0.48239

 Mulliken charges:
               1
     1  C   -0.062202
     2  C   -0.087938
     3  C   -0.106424
     4  C   -0.079245
     5  C   -0.069670
     6  C   -0.089565
     7  H    0.065241
     8  H    0.097571
     9  H    0.073516
    10  H    0.086575
    11  H    0.080322
    12  H    0.091819
 Sum of Mulliken charges =  -0.00000

 Dipole moment (field-independent basis, Debye):
    X=              0.2104    Y=             -0.1586    Z=              0.0658  Tot=              0.2716
 Quadrupole moment (field-independent basis, Debye-Ang):
   XX=            -31.6037   YY=            -32.2063   ZZ=            -38.7739
   XY=             -0.2626   XZ=              0.3355   YZ=             -0.0699

 Normal termination of Gaussian 16 at Fri Nov 10 16:44:24 2023.
