 Gaussian 16, Revision B.01,
 Gaussian 16:  EM64L-G16RevB.01 20-Dec-2017

 ---------------------------------
 # TD=(NStates=1) B3LYP/6-31G(d,p)
 ---------------------------------

 -------
 ABSSPCT
 -------
 Symbolic Z-matrix:
 Charge =  0 Multiplicity = 1

                         Standard orientation:
 ---------------------------------------------------------------------
 Center     Atomic      Atomic             Coordinates (Angstroms)
 Number     Number       Type             X           Y           Z
 ---------------------------------------------------------------------
      1          6           0       -0.937610   -1.107969   -0.003421
      2          6           0        0.525433   -1.279454    0.009660
      3          6           0        1.494679   -0.270628   -0.030028
      4          6           0        0.896940    1.040512   -0.036901
      5          6           0       -0.520829    1.305163    0.042147
      6          6           0       -1.433234    0.235692   -0.051318
      7          1           0       -1.652201   -1.871921   -0.131002
      8          1           0       -2.546249    0.432995    0.136146
      9          1           0       -0.766888    2.398620    0.121423
     10          1           0        1.458939    1.990758   -0.019899
     11          1           0        2.566665   -0.202817    0.064562
     12          1           0        0.787459   -2.287529    0.247939
 ---------------------------------------------------------------------

 SCF Done:  E(RB3LYP) =  -232.221315359     A.U. after   13 cycles

 Excitation energies and oscillator strengths:

 Excited State   1:      Singlet-A      5.1276 eV  241.80 nm  f=0.0035  <S**2>=0.000
      20 -> 22         0.40839
      20 -> 23        -0.20057
      21 -> 22         0.29588
      21 -> 23         0.45290
 This state for optimization and/or second-order correction.
 Total Energy, E(TD-HF/TD-DFT) =  -232.032880962
 Copying the excited state density for this state as the 1-particle RhoCI density.

 The electronic state is 1-A.
 Alpha  occ. eigenvalues --  -10.20103 -10.20045 -10.20030 -10.19859 -10.19594
 Alpha  occ. eigenvalues --  -10.19543  -0.83227  -0.74021  -0.72639  -0.59690
 Alpha  occ. eigenvalues --   -0.59350  -0.50914  -0.46013  -0.44322  -0.41423
 Alpha  occ. eigenvalues --   -0.40146  -0.35688  -0.33722  -0.32488  -0.25084
 Alpha  occ. eigenvalues --   -0.23524
 Alpha virt. eigenvalues --   -0.01246  -0.00403   0.08739   0.12785   0.13591
 Alpha virt. eigenvalues --    0.14708   0.16555   0.17575   0.18880   0.26413
 Alpha virt. eigenvalues --    0.27469   0.30792   0.31665   0.45399   0.47458

 Mulliken charges:
               1
     1  C   -0.087875
     2  C   -0.114568
     3  C   -0.063137
     4  C   -0.102048
     5  C   -0.076761
     6  C   -0.095710
     7  H    0.097950
     8  H    0.084249
     9  H    0.087260
    10  H    0.079495
    11  H    0.105599
    12  H    0.085546
 Sum of Mulliken charges =  -0.00000

 Dipole moment (field-independent basis, Debye):
    X=              0.0628    Y=              0.0937    Z=              0.2427  Tot=              0.2676
 Quadrupole moment (field-independent basis, Debye-Ang):
   XX=            -31.1924   YY=            -31.8670   ZZ=            -38.9259
   XY=              0.7209   XZ=              0.1363   YZ=              0.0087

 Normal termination of Gaussian 16 at Fri Nov 10 18:02:33 2023.
