 Gaussian 16, Revision B.01,
 Gaussian 16:  EM64L-G16RevB.01 20-Dec-2017

 ---------------------------------
 # TD=(NStates=1) B3LYP/6-31G(d,p)
 ---------------------------------

 -------
 ABSSPCT
 -------
 Symbolic Z-matrix:
 Charge =  0 Multiplicity = 1

                         Standard orientation:
 ---------------------------------------------------------------------
 Center     Atomic      Atomic             Coordinates (Angstroms)
 Number     Number       Type             X           Y           Z
 ---------------------------------------------------------------------
      1          6           0       -0.836232    1.090418    0.038727
      2          6           0       -1.408767   -0.167097   -0.037609
      3          6           0       -0.537217   -1.309950    0.023977
      4          6           0        0.835417   -1.080935   -0.017744
      5          6           0        1.409805    0.121954    0.076610
      6          6           0        0.605765    1.291959   -0.052254
      7          1           0       -1.576757    1.952430   -0.011679
      8          1           0        0.754658    2.324381   -0.015109
      9          1           0        2.601927    0.347012   -0.079747
     10          1           0        1.308182   -1.873951   -0.104589
     11          1           0       -0.838200   -2.227882   -0.012367
     12          1           0       -2.662436   -0.200083    0.033251
 ---------------------------------------------------------------------

 SCF Done:  E(RB3LYP) =  -232.170232108     A.U. after   13 cycles

 Excitation energies and oscillator strengths:

 Excited State   1:      Singlet-A      5.3805 eV  230.43 nm  f=0.0024  <S**2>=0.000
      20 -> 22         0.50709
      21 -> 22         0.15915
      21 -> 23         0.45642
 This state for optimization and/or second-order correction.
 Total Energy, E(TD-HF/TD-DFT) =  -231.972501632
 Copying the excited state density for this state as the 1-particle RhoCI density.

 The electronic state is 1-A.
 Alpha  occ. eigenvalues --  -10.20545 -10.20370 -10.19517 -10.19345 -10.18256
 Alpha  occ. eigenvalues --  -10.16973  -0.84848  -0.74931  -0.73646  -0.61432
 Alpha  occ. eigenvalues --   -0.59411  -0.51223  -0.46854  -0.44534  -0.41265
 Alpha  occ. eigenvalues --   -0.40048  -0.36111  -0.35105  -0.31728  -0.25412
 Alpha  occ. eigenvalues --   -0.24117
 Alpha virt. eigenvalues --   -0.01383   0.00678   0.07697   0.10691   0.14748
 Alpha virt. eigenvalues --    0.14960   0.16658   0.18191   0.20980   0.28206
 Alpha virt. eigenvalues --    0.29497   0.30706   0.33205   0.46715   0.49976

 Mulliken charges:
               1
     1  C   -0.098655
     2  C   -0.078365
     3  C   -0.072959
     4  C   -0.030749
     5  C   -0.097684
     6  C   -0.079718
     7  H    0.080867
     8  H    0.096452
     9  H    0.075030
    10  H    0.062745
    11  H    0.073758
    12  H    0.069276
 Sum of Mulliken charges =  -0.00000

 Dipole moment (field-independent basis, Debye):
    X=             -0.0334    Y=             -0.0929    Z=             -0.1229  Tot=              0.1576
 Quadrupole moment (field-independent basis, Debye-Ang):
   XX=            -32.4774   YY=            -30.9654   ZZ=            -38.5808
   XY=             -0.3259   XZ=             -0.3546   YZ=              0.1115

 Normal termination of Gaussian 16 at Fri Nov 10 18:07:35 2023.
