 Gaussian 16, Revision B.01,
 Gaussian 16:  EM64L-G16RevB.01 20-Dec-2017

 ---------------------------------
 # TD=(NStates=1) B3LYP/6-31G(d,p)
 ---------------------------------

 -------
 ABSSPCT
 -------
 Symbolic Z-matrix:
 Charge =  0 Multiplicity = 1

                         Standard orientation:
 ---------------------------------------------------------------------
 Center     Atomic      Atomic             Coordinates (Angstroms)
 Number     Number       Type             X           Y           Z
 ---------------------------------------------------------------------
      1          6           0        1.411904    0.071815   -0.041413
      2          6           0        0.659836    1.201761    0.060320
      3          6           0       -0.787275    1.184815    0.045044
      4          6           0       -1.433688   -0.062879    0.004662
      5          6           0       -0.615221   -1.231961    0.006229
      6          6           0        0.758363   -1.175591   -0.022301
      7          1           0        2.396160    0.145712   -0.149090
      8          1           0        1.406844   -1.896009    0.293582
      9          1           0       -1.180328   -2.127128   -0.086109
     10          1           0       -2.521619   -0.264393   -0.140791
     11          1           0       -1.447503    2.188980   -0.105617
     12          1           0        1.382930    2.025083   -0.127231
 ---------------------------------------------------------------------

 SCF Done:  E(RB3LYP) =  -232.207480865     A.U. after   13 cycles

 Excitation energies and oscillator strengths:

 Excited State   1:      Singlet-A      5.3123 eV  233.39 nm  f=0.0005  <S**2>=0.000
      20 -> 22         0.49934
      21 -> 22        -0.11468
      21 -> 23         0.47908
 This state for optimization and/or second-order correction.
 Total Energy, E(TD-HF/TD-DFT) =  -232.012256091
 Copying the excited state density for this state as the 1-particle RhoCI density.

 The electronic state is 1-A.
 Alpha  occ. eigenvalues --  -10.21220 -10.19738 -10.19081 -10.18652 -10.17796
 Alpha  occ. eigenvalues --  -10.17355  -0.84624  -0.74898  -0.73407  -0.60819
 Alpha  occ. eigenvalues --   -0.59266  -0.51366  -0.46328  -0.44626  -0.41898
 Alpha  occ. eigenvalues --   -0.40142  -0.35952  -0.35089  -0.31889  -0.24934
 Alpha  occ. eigenvalues --   -0.24184
 Alpha virt. eigenvalues --   -0.01016   0.00197   0.08264   0.13633   0.13880
 Alpha virt. eigenvalues --    0.14089   0.16885   0.18866   0.21393   0.28460
 Alpha virt. eigenvalues --    0.29306   0.30669   0.33120   0.46737   0.51077

 Mulliken charges:
               1
     1  C   -0.079411
     2  C   -0.076328
     3  C   -0.108070
     4  C   -0.079414
     5  C   -0.090201
     6  C   -0.076266
     7  H    0.081351
     8  H    0.087338
     9  H    0.082880
    10  H    0.092898
    11  H    0.084382
    12  H    0.080843
 Sum of Mulliken charges =  -0.00000

 Dipole moment (field-independent basis, Debye):
    X=              0.1084    Y=             -0.1105    Z=             -0.1856  Tot=              0.2417
 Quadrupole moment (field-independent basis, Debye-Ang):
   XX=            -30.4576   YY=            -33.0924   ZZ=            -38.4019
   XY=              0.4081   XZ=              0.4175   YZ=             -0.6902

 Normal termination of Gaussian 16 at Fri Nov 10 16:05:38 2023.
