 Gaussian 16, Revision B.01,
 Gaussian 16:  EM64L-G16RevB.01 20-Dec-2017

 ---------------------------------
 # TD=(NStates=1) B3LYP/6-31G(d,p)
 ---------------------------------

 -------
 ABSSPCT
 -------
 Symbolic Z-matrix:
 Charge =  0 Multiplicity = 1

                         Standard orientation:
 ---------------------------------------------------------------------
 Center     Atomic      Atomic             Coordinates (Angstroms)
 Number     Number       Type             X           Y           Z
 ---------------------------------------------------------------------
      1          6           0       -1.398586    0.059120    0.004327
      2          6           0       -0.636048    1.162543    0.021585
      3          6           0        0.760143    1.162824    0.040750
      4          6           0        1.438944   -0.043612   -0.078085
      5          6           0        0.638844   -1.233183    0.072490
      6          6           0       -0.742102   -1.160521   -0.071706
      7          1           0       -2.428535    0.315005    0.102221
      8          1           0       -1.498469   -2.004039   -0.068325
      9          1           0        1.064249   -2.207501    0.177842
     10          1           0        2.487985   -0.178983   -0.052553
     11          1           0        1.185111    2.240791   -0.006376
     12          1           0       -1.177512    2.151702   -0.088968
 ---------------------------------------------------------------------

 SCF Done:  E(RB3LYP) =  -232.225139309     A.U. after   13 cycles

 Excitation energies and oscillator strengths:

 Excited State   1:      Singlet-A      5.4390 eV  227.96 nm  f=0.0024  <S**2>=0.000
      20 -> 22        -0.13978
      20 -> 23         0.43217
      21 -> 22         0.51861
      21 -> 23         0.15531
 This state for optimization and/or second-order correction.
 Total Energy, E(TD-HF/TD-DFT) =  -232.025261551
 Copying the excited state density for this state as the 1-particle RhoCI density.

 The electronic state is 1-A.
 Alpha  occ. eigenvalues --  -10.19530 -10.19473 -10.19314 -10.19200 -10.18003
 Alpha  occ. eigenvalues --  -10.17692  -0.85251  -0.74756  -0.73693  -0.60369
 Alpha  occ. eigenvalues --   -0.59364  -0.51632  -0.45944  -0.43565  -0.41862
 Alpha  occ. eigenvalues --   -0.40724  -0.36389  -0.34388  -0.32640  -0.25032
 Alpha  occ. eigenvalues --   -0.24301
 Alpha virt. eigenvalues --   -0.00165   0.00190   0.08175   0.12992   0.14243
 Alpha virt. eigenvalues --    0.15734   0.16811   0.17855   0.20104   0.28796
 Alpha virt. eigenvalues --    0.30410   0.32330   0.32887   0.45989   0.50502

 Mulliken charges:
               1
     1  C   -0.056887
     2  C   -0.081621
     3  C   -0.079610
     4  C   -0.095210
     5  C   -0.098288
     6  C   -0.093844
     7  H    0.088051
     8  H    0.081513
     9  H    0.090043
    10  H    0.091976
    11  H    0.081984
    12  H    0.071894
 Sum of Mulliken charges =  -0.00000

 Dipole moment (field-independent basis, Debye):
    X=             -0.0836    Y=              0.0027    Z=              0.0483  Tot=              0.0966
 Quadrupole moment (field-independent basis, Debye-Ang):
   XX=            -31.4542   YY=            -32.1082   ZZ=            -38.4766
   XY=             -0.5434   XZ=             -0.0129   YZ=             -0.3720

 Normal termination of Gaussian 16 at Fri Nov 10 16:39:42 2023.
