 Gaussian 16, Revision B.01,
 Gaussian 16:  EM64L-G16RevB.01 20-Dec-2017

 ---------------------------------
 # TD=(NStates=1) B3LYP/6-31G(d,p)
 ---------------------------------

 -------
 ABSSPCT
 -------
 Symbolic Z-matrix:
 Charge =  0 Multiplicity = 1

                         Standard orientation:
 ---------------------------------------------------------------------
 Center     Atomic      Atomic             Coordinates (Angstroms)
 Number     Number       Type             X           Y           Z
 ---------------------------------------------------------------------
      1          6           0        1.122683   -0.681281   -0.033837
      2          6           0        1.199325    0.588222    0.072408
      3          6           0        0.066430    1.406392   -0.011370
      4          6           0       -1.141521    0.679452   -0.054225
      5          6           0       -1.217047   -0.621034   -0.016324
      6          6           0       -0.029134   -1.384428   -0.016001
      7          1           0        2.266617   -1.228379   -0.101089
      8          1           0       -0.280406   -2.405700    0.092516
      9          1           0       -2.157031   -0.945249    0.243550
     10          1           0       -2.096340    1.263532    0.093204
     11          1           0        0.085001    2.386617   -0.063574
     12          1           0        2.177745    1.005246    0.091485
 ---------------------------------------------------------------------

 SCF Done:  E(RB3LYP) =  -232.184562590     A.U. after   13 cycles

 Excitation energies and oscillator strengths:

 Excited State   1:      Singlet-A      5.7810 eV  214.47 nm  f=0.0042  <S**2>=0.000
      20 -> 22         0.53072
      21 -> 22         0.12223
      21 -> 23         0.44673
 This state for optimization and/or second-order correction.
 Total Energy, E(TD-HF/TD-DFT) =  -231.972115690
 Copying the excited state density for this state as the 1-particle RhoCI density.

 The electronic state is 1-A.
 Alpha  occ. eigenvalues --  -10.18893 -10.18451 -10.17883 -10.17757 -10.17347
 Alpha  occ. eigenvalues --  -10.16926  -0.87023  -0.76358  -0.74278  -0.62725
 Alpha  occ. eigenvalues --   -0.58386  -0.52686  -0.46929  -0.44693  -0.42835
 Alpha  occ. eigenvalues --   -0.39690  -0.37423  -0.35576  -0.31095  -0.26363
 Alpha  occ. eigenvalues --   -0.24145
 Alpha virt. eigenvalues --   -0.00989   0.02476   0.07265   0.12331   0.15796
 Alpha virt. eigenvalues --    0.16911   0.17943   0.19706   0.21210   0.30070
 Alpha virt. eigenvalues --    0.30975   0.32843   0.35529   0.46271   0.51939

 Mulliken charges:
               1
     1  C   -0.059938
     2  C   -0.063056
     3  C   -0.066953
     4  C   -0.089639
     5  C   -0.072854
     6  C   -0.097706
     7  H    0.052695
     8  H    0.091014
     9  H    0.082942
    10  H    0.067625
    11  H    0.075583
    12  H    0.080287
 Sum of Mulliken charges =  -0.00000

 Dipole moment (field-independent basis, Debye):
    X=             -0.1608    Y=              0.1745    Z=              0.2337  Tot=              0.3331
 Quadrupole moment (field-independent basis, Debye-Ang):
   XX=            -31.9703   YY=            -32.0683   ZZ=            -37.8681
   XY=              0.7912   XZ=             -0.6293   YZ=             -0.2865

 Normal termination of Gaussian 16 at Fri Nov 10 18:52:22 2023.
