 Gaussian 16, Revision B.01,
 Gaussian 16:  EM64L-G16RevB.01 20-Dec-2017

 ---------------------------------
 # TD=(NStates=1) B3LYP/6-31G(d,p)
 ---------------------------------

 -------
 ABSSPCT
 -------
 Symbolic Z-matrix:
 Charge =  0 Multiplicity = 1

                         Standard orientation:
 ---------------------------------------------------------------------
 Center     Atomic      Atomic             Coordinates (Angstroms)
 Number     Number       Type             X           Y           Z
 ---------------------------------------------------------------------
      1          6           0        1.259182    0.581873    0.051259
      2          6           0        1.166794   -0.749592   -0.032758
      3          6           0       -0.105634   -1.365054   -0.025382
      4          6           0       -1.254245   -0.624846   -0.011333
      5          6           0       -1.133302    0.743668    0.002855
      6          6           0        0.094536    1.388846    0.011644
      7          1           0        2.289184    1.104311   -0.112439
      8          1           0        0.062785    2.522479   -0.086756
      9          1           0       -1.966448    1.272697    0.032407
     10          1           0       -2.264222   -0.784870    0.009814
     11          1           0       -0.227491   -2.438729    0.113333
     12          1           0        1.942203   -1.525255    0.065938
 ---------------------------------------------------------------------

 SCF Done:  E(RB3LYP) =  -232.216170240     A.U. after   13 cycles

 Excitation energies and oscillator strengths:

 Excited State   1:      Singlet-A      5.6078 eV  221.09 nm  f=0.0005  <S**2>=0.000
      20 -> 22        -0.48060
      21 -> 22         0.12176
      21 -> 23         0.49625
 This state for optimization and/or second-order correction.
 Total Energy, E(TD-HF/TD-DFT) =  -232.010088653
 Copying the excited state density for this state as the 1-particle RhoCI density.

 The electronic state is 1-A.
 Alpha  occ. eigenvalues --  -10.19498 -10.19225 -10.18754 -10.18685 -10.17388
 Alpha  occ. eigenvalues --  -10.16850  -0.85585  -0.75517  -0.73754  -0.60919
 Alpha  occ. eigenvalues --   -0.59688  -0.52033  -0.46450  -0.43910  -0.41919
 Alpha  occ. eigenvalues --   -0.41044  -0.36543  -0.34035  -0.32609  -0.25537
 Alpha  occ. eigenvalues --   -0.24361
 Alpha virt. eigenvalues --   -0.00215   0.00819   0.08660   0.13864   0.14173
 Alpha virt. eigenvalues --    0.15978   0.16764   0.18369   0.21984   0.28914
 Alpha virt. eigenvalues --    0.30351   0.32735   0.33520   0.45528   0.52387

 Mulliken charges:
               1
     1  C   -0.107657
     2  C   -0.061423
     3  C   -0.120807
     4  C   -0.033157
     5  C   -0.079729
     6  C   -0.083471
     7  H    0.079707
     8  H    0.085685
     9  H    0.068545
    10  H    0.078916
    11  H    0.083151
    12  H    0.090241
 Sum of Mulliken charges =  -0.00000

 Dipole moment (field-independent basis, Debye):
    X=             -0.2831    Y=              0.0259    Z=              0.0191  Tot=              0.2849
 Quadrupole moment (field-independent basis, Debye-Ang):
   XX=            -31.6494   YY=            -31.8703   ZZ=            -38.2583
   XY=             -0.5915   XZ=             -0.2008   YZ=             -0.5866

 Normal termination of Gaussian 16 at Fri Nov 10 19:20:49 2023.
