 Gaussian 16, Revision B.01,
 Gaussian 16:  EM64L-G16RevB.01 20-Dec-2017

 ---------------------------------
 # TD=(NStates=1) B3LYP/6-31G(d,p)
 ---------------------------------

 -------
 ABSSPCT
 -------
 Symbolic Z-matrix:
 Charge =  0 Multiplicity = 1

                         Standard orientation:
 ---------------------------------------------------------------------
 Center     Atomic      Atomic             Coordinates (Angstroms)
 Number     Number       Type             X           Y           Z
 ---------------------------------------------------------------------
      1          6           0        0.045084   -1.310356    0.011428
      2          6           0        1.232523   -0.692365    0.005547
      3          6           0        1.236092    0.669161    0.005701
      4          6           0        0.039872    1.301818    0.005209
      5          6           0       -1.275227    0.712617    0.003241
      6          6           0       -1.268321   -0.710051   -0.062549
      7          1           0        0.137150   -2.382989    0.103179
      8          1           0       -2.197576   -1.404636    0.029031
      9          1           0       -2.260545    1.339752    0.188324
     10          1           0        0.071956    2.424956   -0.105933
     11          1           0        2.067782    1.434106    0.010480
     12          1           0        2.121098   -1.236133   -0.036547
 ---------------------------------------------------------------------

 SCF Done:  E(RB3LYP) =  -232.218788910     A.U. after   13 cycles

 Excitation energies and oscillator strengths:

 Excited State   1:      Singlet-A      5.4415 eV  227.85 nm  f=0.0078  <S**2>=0.000
      20 -> 23        -0.41673
      21 -> 22         0.57047
 This state for optimization and/or second-order correction.
 Total Energy, E(TD-HF/TD-DFT) =  -232.018816816
 Copying the excited state density for this state as the 1-particle RhoCI density.

 The electronic state is 1-A.
 Alpha  occ. eigenvalues --  -10.20795 -10.20644 -10.18778 -10.18553 -10.18440
 Alpha  occ. eigenvalues --  -10.17820  -0.85343  -0.74441  -0.73687  -0.59883
 Alpha  occ. eigenvalues --   -0.58879  -0.51664  -0.45345  -0.43485  -0.42275
 Alpha  occ. eigenvalues --   -0.39733  -0.36298  -0.34241  -0.32844  -0.25213
 Alpha  occ. eigenvalues --   -0.24271
 Alpha virt. eigenvalues --   -0.00490   0.00562   0.07562   0.12497   0.13368
 Alpha virt. eigenvalues --    0.15539   0.16651   0.18375   0.19228   0.27945
 Alpha virt. eigenvalues --    0.29939   0.31648   0.32897   0.46562   0.51470

 Mulliken charges:
               1
     1  C   -0.088160
     2  C   -0.072005
     3  C   -0.065614
     4  C   -0.089959
     5  C   -0.098850
     6  C   -0.094542
     7  H    0.075971
     8  H    0.091690
     9  H    0.094324
    10  H    0.072045
    11  H    0.088514
    12  H    0.086585
 Sum of Mulliken charges =  -0.00000

 Dipole moment (field-independent basis, Debye):
    X=              0.0640    Y=             -0.0431    Z=              0.1217  Tot=              0.1441
 Quadrupole moment (field-independent basis, Debye-Ang):
   XX=            -31.4486   YY=            -32.0135   ZZ=            -38.6225
   XY=              0.0038   XZ=             -0.4619   YZ=             -0.1692

 Normal termination of Gaussian 16 at Fri Nov 10 18:12:49 2023.
