 Gaussian 16, Revision B.01,
 Gaussian 16:  EM64L-G16RevB.01 20-Dec-2017

 ---------------------------------
 # TD=(NStates=1) B3LYP/6-31G(d,p)
 ---------------------------------

 -------
 ABSSPCT
 -------
 Symbolic Z-matrix:
 Charge =  0 Multiplicity = 1

                         Standard orientation:
 ---------------------------------------------------------------------
 Center     Atomic      Atomic             Coordinates (Angstroms)
 Number     Number       Type             X           Y           Z
 ---------------------------------------------------------------------
      1          6           0       -1.215836    0.739190   -0.024317
      2          6           0       -1.228628   -0.604916    0.036979
      3          6           0       -0.080493   -1.389216   -0.024737
      4          6           0        1.128222   -0.754583   -0.010147
      5          6           0        1.292609    0.634471    0.021477
      6          6           0        0.063626    1.366567   -0.062261
      7          1           0       -2.111471    1.423457    0.071378
      8          1           0        0.215119    2.511756    0.024365
      9          1           0        2.423053    0.943497    0.230165
     10          1           0        2.038616   -1.394101   -0.028911
     11          1           0       -0.189721   -2.251166   -0.088178
     12          1           0       -2.132589   -1.182520    0.169218
 ---------------------------------------------------------------------

 SCF Done:  E(RB3LYP) =  -232.182091495     A.U. after   13 cycles

 Excitation energies and oscillator strengths:

 Excited State   1:      Singlet-A      5.5148 eV  224.82 nm  f=0.0001  <S**2>=0.000
      20 -> 22         0.51071
      21 -> 23         0.48831
 This state for optimization and/or second-order correction.
 Total Energy, E(TD-HF/TD-DFT) =  -231.979426844
 Copying the excited state density for this state as the 1-particle RhoCI density.

 The electronic state is 1-A.
 Alpha  occ. eigenvalues --  -10.20392 -10.20115 -10.19480 -10.18437 -10.18225
 Alpha  occ. eigenvalues --  -10.16138  -0.85216  -0.74559  -0.74283  -0.60918
 Alpha  occ. eigenvalues --   -0.59155  -0.52401  -0.46043  -0.43890  -0.41944
 Alpha  occ. eigenvalues --   -0.41201  -0.36337  -0.33735  -0.32796  -0.25197
 Alpha  occ. eigenvalues --   -0.24372
 Alpha virt. eigenvalues --   -0.00470   0.00696   0.07888   0.12173   0.14911
 Alpha virt. eigenvalues --    0.15445   0.16777   0.17638   0.21743   0.28354
 Alpha virt. eigenvalues --    0.29663   0.31790   0.34709   0.45383   0.51238

 Mulliken charges:
               1
     1  C   -0.067287
     2  C   -0.105182
     3  C    0.030410
     4  C   -0.098444
     5  C   -0.077524
     6  C   -0.127473
     7  H    0.093874
     8  H    0.080778
     9  H    0.095642
    10  H    0.071963
    11  H    0.024606
    12  H    0.078636
 Sum of Mulliken charges =  -0.00000

 Dipole moment (field-independent basis, Debye):
    X=             -0.0214    Y=             -0.1932    Z=              0.2261  Tot=              0.2981
 Quadrupole moment (field-independent basis, Debye-Ang):
   XX=            -31.4820   YY=            -31.8960   ZZ=            -38.3904
   XY=              0.0402   XZ=              0.0585   YZ=              0.3698

 Normal termination of Gaussian 16 at Fri Nov 10 16:33:53 2023.
