 Gaussian 16, Revision B.01,
 Gaussian 16:  EM64L-G16RevB.01 20-Dec-2017

 ---------------------------------
 # TD=(NStates=1) B3LYP/6-31G(d,p)
 ---------------------------------

 -------
 ABSSPCT
 -------
 Symbolic Z-matrix:
 Charge =  0 Multiplicity = 1

                         Standard orientation:
 ---------------------------------------------------------------------
 Center     Atomic      Atomic             Coordinates (Angstroms)
 Number     Number       Type             X           Y           Z
 ---------------------------------------------------------------------
      1          6           0       -1.088685   -0.910604    0.028610
      2          6           0        0.224765   -1.319373    0.031893
      3          6           0        1.423886   -0.472523   -0.033757
      4          6           0        1.048976    0.881951   -0.004877
      5          6           0       -0.262723    1.353143    0.023151
      6          6           0       -1.354713    0.426423   -0.048049
      7          1           0       -1.791366   -1.571326    0.063479
      8          1           0       -2.454934    0.901109   -0.078652
      9          1           0       -0.335830    2.374673    0.012749
     10          1           0        1.826661    1.630272    0.156769
     11          1           0        2.337617   -0.759184   -0.100982
     12          1           0        0.468814   -2.329643   -0.035184
 ---------------------------------------------------------------------

 SCF Done:  E(RB3LYP) =  -232.203074555     A.U. after   13 cycles

 Excitation energies and oscillator strengths:

 Excited State   1:      Singlet-A      5.3773 eV  230.57 nm  f=0.0038  <S**2>=0.000
      20 -> 22         0.46748
      20 -> 23         0.14992
      21 -> 22         0.25668
      21 -> 23        -0.43907
 This state for optimization and/or second-order correction.
 Total Energy, E(TD-HF/TD-DFT) =  -232.005464160
 Copying the excited state density for this state as the 1-particle RhoCI density.

 The electronic state is 1-A.
 Alpha  occ. eigenvalues --  -10.20123 -10.18683 -10.18524 -10.18367 -10.18169
 Alpha  occ. eigenvalues --  -10.17513  -0.84503  -0.75172  -0.73406  -0.61092
 Alpha  occ. eigenvalues --   -0.59576  -0.53249  -0.46568  -0.43728  -0.43490
 Alpha  occ. eigenvalues --   -0.41236  -0.35934  -0.34560  -0.32345  -0.25243
 Alpha  occ. eigenvalues --   -0.23776
 Alpha virt. eigenvalues --   -0.01028   0.00881   0.09599   0.14169   0.15283
 Alpha virt. eigenvalues --    0.16012   0.18191   0.19142   0.20571   0.27616
 Alpha virt. eigenvalues --    0.28773   0.32108   0.33333   0.46232   0.49465

 Mulliken charges:
               1
     1  C   -0.028160
     2  C   -0.115515
     3  C   -0.044562
     4  C   -0.099058
     5  C   -0.064730
     6  C   -0.103897
     7  H    0.073935
     8  H    0.078287
     9  H    0.081616
    10  H    0.072950
    11  H    0.073982
    12  H    0.075153
 Sum of Mulliken charges =  -0.00000

 Dipole moment (field-independent basis, Debye):
    X=              0.0931    Y=             -0.0740    Z=              0.0017  Tot=              0.1190
 Quadrupole moment (field-independent basis, Debye-Ang):
   XX=            -31.1163   YY=            -31.7416   ZZ=            -38.3342
   XY=             -0.0631   XZ=              0.0024   YZ=              0.2170

 Normal termination of Gaussian 16 at Fri Nov 10 18:03:28 2023.
