 Gaussian 16, Revision B.01,
 Gaussian 16:  EM64L-G16RevB.01 20-Dec-2017

 ---------------------------------
 # TD=(NStates=1) B3LYP/6-31G(d,p)
 ---------------------------------

 -------
 ABSSPCT
 -------
 Symbolic Z-matrix:
 Charge =  0 Multiplicity = 1

                         Standard orientation:
 ---------------------------------------------------------------------
 Center     Atomic      Atomic             Coordinates (Angstroms)
 Number     Number       Type             X           Y           Z
 ---------------------------------------------------------------------
      1          6           0        0.295087   -1.302816    0.069852
      2          6           0        1.301254   -0.519258    0.009441
      3          6           0        1.091760    0.882093    0.009874
      4          6           0       -0.233692    1.330975   -0.040376
      5          6           0       -1.372449    0.455997   -0.012634
      6          6           0       -1.123983   -0.870510   -0.009910
      7          1           0        0.564805   -2.339081   -0.039257
      8          1           0       -2.061997   -1.517057   -0.181076
      9          1           0       -2.282255    0.767388    0.100547
     10          1           0       -0.196457    2.550694    0.241286
     11          1           0        1.863818    1.652909   -0.191259
     12          1           0        2.364219   -0.973730   -0.087727
 ---------------------------------------------------------------------

 SCF Done:  E(RB3LYP) =  -232.186989919     A.U. after   13 cycles

 Excitation energies and oscillator strengths:

 Excited State   1:      Singlet-A      5.5261 eV  224.36 nm  f=0.0018  <S**2>=0.000
      20 -> 22        -0.48706
      21 -> 22        -0.12925
      21 -> 23         0.49058
 This state for optimization and/or second-order correction.
 Total Energy, E(TD-HF/TD-DFT) =  -231.983909294
 Copying the excited state density for this state as the 1-particle RhoCI density.

 The electronic state is 1-A.
 Alpha  occ. eigenvalues --  -10.20381 -10.20102 -10.19156 -10.18752 -10.18359
 Alpha  occ. eigenvalues --  -10.18073  -0.85350  -0.76057  -0.73040  -0.59814
 Alpha  occ. eigenvalues --   -0.58952  -0.52031  -0.45097  -0.44275  -0.42474
 Alpha  occ. eigenvalues --   -0.39341  -0.36774  -0.34313  -0.31830  -0.26061
 Alpha  occ. eigenvalues --   -0.23971
 Alpha virt. eigenvalues --   -0.01094   0.00891   0.07236   0.11477   0.12934
 Alpha virt. eigenvalues --    0.16037   0.16756   0.18622   0.19155   0.27723
 Alpha virt. eigenvalues --    0.29975   0.30699   0.33415   0.45904   0.49367

 Mulliken charges:
               1
     1  C   -0.083567
     2  C   -0.062522
     3  C   -0.097446
     4  C   -0.093001
     5  C   -0.052596
     6  C   -0.101750
     7  H    0.079854
     8  H    0.091136
     9  H    0.079913
    10  H    0.064895
    11  H    0.092112
    12  H    0.082973
 Sum of Mulliken charges =  -0.00000

 Dipole moment (field-independent basis, Debye):
    X=             -0.0324    Y=             -0.1614    Z=             -0.1051  Tot=              0.1953
 Quadrupole moment (field-independent basis, Debye-Ang):
   XX=            -31.1007   YY=            -32.8041   ZZ=            -38.4448
   XY=              0.2405   XZ=             -0.3817   YZ=              0.6372

 Normal termination of Gaussian 16 at Fri Nov 10 16:33:23 2023.
