 Gaussian 16, Revision B.01,
 Gaussian 16:  EM64L-G16RevB.01 20-Dec-2017

 ---------------------------------
 # TD=(NStates=1) B3LYP/6-31G(d,p)
 ---------------------------------

 -------
 ABSSPCT
 -------
 Symbolic Z-matrix:
 Charge =  0 Multiplicity = 1

                         Standard orientation:
 ---------------------------------------------------------------------
 Center     Atomic      Atomic             Coordinates (Angstroms)
 Number     Number       Type             X           Y           Z
 ---------------------------------------------------------------------
      1          6           0       -1.360501    0.432669    0.032285
      2          6           0       -1.055719   -0.841405    0.010833
      3          6           0        0.201821   -1.325269   -0.038009
      4          6           0        1.369474   -0.471480    0.017177
      5          6           0        1.110681    0.883362    0.005147
      6          6           0       -0.273569    1.344159   -0.092341
      7          1           0       -2.416678    0.720049    0.077381
      8          1           0       -0.460133    2.363137    0.045933
      9          1           0        1.961524    1.473106    0.137374
     10          1           0        2.426591   -0.792989    0.141721
     11          1           0        0.344363   -2.407367   -0.175315
     12          1           0       -1.808799   -1.488159    0.162358
 ---------------------------------------------------------------------

 SCF Done:  E(RB3LYP) =  -232.220773745     A.U. after   13 cycles

 Excitation energies and oscillator strengths:

 Excited State   1:      Singlet-A      5.4577 eV  227.17 nm  f=0.0013  <S**2>=0.000
      20 -> 22         0.49334
      21 -> 22         0.11759
      21 -> 23         0.48888
 This state for optimization and/or second-order correction.
 Total Energy, E(TD-HF/TD-DFT) =  -232.020206589
 Copying the excited state density for this state as the 1-particle RhoCI density.

 The electronic state is 1-A.
 Alpha  occ. eigenvalues --  -10.19223 -10.19075 -10.18735 -10.18676 -10.18339
 Alpha  occ. eigenvalues --  -10.16397  -0.85158  -0.75611  -0.72865  -0.61201
 Alpha  occ. eigenvalues --   -0.58950  -0.52207  -0.46264  -0.44404  -0.42525
 Alpha  occ. eigenvalues --   -0.40389  -0.36272  -0.34652  -0.32979  -0.25683
 Alpha  occ. eigenvalues --   -0.23521
 Alpha virt. eigenvalues --   -0.01076   0.01245   0.09479   0.13788   0.15204
 Alpha virt. eigenvalues --    0.16125   0.17464   0.19150   0.20608   0.28517
 Alpha virt. eigenvalues --    0.30115   0.31750   0.32735   0.46611   0.51643

 Mulliken charges:
               1
     1  C   -0.079659
     2  C   -0.039450
     3  C   -0.098237
     4  C   -0.089144
     5  C   -0.081258
     6  C   -0.110213
     7  H    0.088262
     8  H    0.082081
     9  H    0.084851
    10  H    0.090551
    11  H    0.078488
    12  H    0.073728
 Sum of Mulliken charges =  -0.00000

 Dipole moment (field-independent basis, Debye):
    X=             -0.0223    Y=             -0.0489    Z=              0.2534  Tot=              0.2590
 Quadrupole moment (field-independent basis, Debye-Ang):
   XX=            -30.5097   YY=            -32.5419   ZZ=            -38.2527
   XY=              0.1711   XZ=              0.0648   YZ=              0.3717

 Normal termination of Gaussian 16 at Fri Nov 10 17:00:13 2023.
