 Gaussian 16, Revision B.01,
 Gaussian 16:  EM64L-G16RevB.01 20-Dec-2017

 ---------------------------------
 # TD=(NStates=1) B3LYP/6-31G(d,p)
 ---------------------------------

 -------
 ABSSPCT
 -------
 Symbolic Z-matrix:
 Charge =  0 Multiplicity = 1

                         Standard orientation:
 ---------------------------------------------------------------------
 Center     Atomic      Atomic             Coordinates (Angstroms)
 Number     Number       Type             X           Y           Z
 ---------------------------------------------------------------------
      1          6           0       -1.205209   -0.671503   -0.030602
      2          6           0        0.005297   -1.371075   -0.003669
      3          6           0        1.164951   -0.651530   -0.011036
      4          6           0        1.285318    0.669869   -0.023738
      5          6           0       -0.005925    1.449198   -0.051364
      6          6           0       -1.196040    0.637920    0.066075
      7          1           0       -2.166195   -1.156572   -0.096590
      8          1           0       -2.381325    1.022844   -0.042075
      9          1           0       -0.154347    2.463594    0.197466
     10          1           0        2.249837    1.059722    0.036371
     11          1           0        2.027054   -1.247767    0.063156
     12          1           0        0.134616   -2.519098    0.167674
 ---------------------------------------------------------------------

 SCF Done:  E(RB3LYP) =  -232.196486491     A.U. after   13 cycles

 Excitation energies and oscillator strengths:

 Excited State   1:      Singlet-A      5.4828 eV  226.13 nm  f=0.0046  <S**2>=0.000
      20 -> 22         0.53936
      21 -> 22         0.10202
      21 -> 23         0.44278
 This state for optimization and/or second-order correction.
 Total Energy, E(TD-HF/TD-DFT) =  -231.994996004
 Copying the excited state density for this state as the 1-particle RhoCI density.

 The electronic state is 1-A.
 Alpha  occ. eigenvalues --  -10.20344 -10.19674 -10.19336 -10.19218 -10.17974
 Alpha  occ. eigenvalues --  -10.17305  -0.85479  -0.75945  -0.72861  -0.61975
 Alpha  occ. eigenvalues --   -0.57801  -0.52047  -0.45651  -0.43788  -0.42044
 Alpha  occ. eigenvalues --   -0.40053  -0.37005  -0.34443  -0.31886  -0.26255
 Alpha  occ. eigenvalues --   -0.23709
 Alpha virt. eigenvalues --   -0.02162   0.01855   0.07154   0.11636   0.14539
 Alpha virt. eigenvalues --    0.15857   0.16841   0.18667   0.20215   0.27781
 Alpha virt. eigenvalues --    0.29103   0.31924   0.33503   0.46941   0.50808

 Mulliken charges:
               1
     1  C   -0.066163
     2  C   -0.085505
     3  C   -0.056269
     4  C   -0.084544
     5  C   -0.125470
     6  C   -0.077755
     7  H    0.086057
     8  H    0.061761
     9  H    0.099754
    10  H    0.089627
    11  H    0.076320
    12  H    0.082186
 Sum of Mulliken charges =  -0.00000

 Dipole moment (field-independent basis, Debye):
    X=              0.1853    Y=             -0.2173    Z=              0.2034  Tot=              0.3506
 Quadrupole moment (field-independent basis, Debye-Ang):
   XX=            -31.3160   YY=            -32.4384   ZZ=            -38.4388
   XY=              0.0923   XZ=              0.4355   YZ=              0.1468

 Normal termination of Gaussian 16 at Fri Nov 10 17:10:21 2023.
