 Gaussian 16, Revision B.01,
 Gaussian 16:  EM64L-G16RevB.01 20-Dec-2017

 ---------------------------------
 # TD=(NStates=1) B3LYP/6-31G(d,p)
 ---------------------------------

 -------
 ABSSPCT
 -------
 Symbolic Z-matrix:
 Charge =  0 Multiplicity = 1

                         Standard orientation:
 ---------------------------------------------------------------------
 Center     Atomic      Atomic             Coordinates (Angstroms)
 Number     Number       Type             X           Y           Z
 ---------------------------------------------------------------------
      1          6           0        1.177435   -0.684989    0.045377
      2          6           0        1.247722    0.688180   -0.008794
      3          6           0        0.011610    1.331679   -0.052444
      4          6           0       -1.217426    0.684405   -0.023764
      5          6           0       -1.189820   -0.687689    0.097990
      6          6           0       -0.030636   -1.342090   -0.034029
      7          1           0        2.074861   -1.354749   -0.098541
      8          1           0        0.093790   -2.254622   -0.171765
      9          1           0       -2.195680   -1.255687   -0.088691
     10          1           0       -2.020714    1.320936    0.056447
     11          1           0       -0.149359    2.370087   -0.027009
     12          1           0        2.203795    1.237052    0.183538
 ---------------------------------------------------------------------

 SCF Done:  E(RB3LYP) =  -232.203375104     A.U. after   13 cycles

 Excitation energies and oscillator strengths:

 Excited State   1:      Singlet-A      5.5831 eV  222.07 nm  f=0.0029  <S**2>=0.000
      20 -> 22         0.19662
      20 -> 23         0.41222
      21 -> 22         0.50195
      21 -> 23        -0.19744
 This state for optimization and/or second-order correction.
 Total Energy, E(TD-HF/TD-DFT) =  -231.998200574
 Copying the excited state density for this state as the 1-particle RhoCI density.

 The electronic state is 1-A.
 Alpha  occ. eigenvalues --  -10.19111 -10.18789 -10.18507 -10.18015 -10.17799
 Alpha  occ. eigenvalues --  -10.16300  -0.86060  -0.75306  -0.74540  -0.61279
 Alpha  occ. eigenvalues --   -0.59692  -0.52543  -0.45837  -0.44911  -0.41904
 Alpha  occ. eigenvalues --   -0.41512  -0.36507  -0.34749  -0.32517  -0.25257
 Alpha  occ. eigenvalues --   -0.24694
 Alpha virt. eigenvalues --   -0.00101   0.00588   0.09068   0.13557   0.14730
 Alpha virt. eigenvalues --    0.15999   0.17132   0.20637   0.21305   0.29607
 Alpha virt. eigenvalues --    0.30591   0.32296   0.35044   0.45960   0.50656

 Mulliken charges:
               1
     1  C   -0.107522
     2  C   -0.081749
     3  C   -0.084171
     4  C   -0.069257
     5  C   -0.099190
     6  C   -0.011699
     7  H    0.076367
     8  H    0.058332
     9  H    0.069324
    10  H    0.084970
    11  H    0.074047
    12  H    0.090548
 Sum of Mulliken charges =  -0.00000

 Dipole moment (field-independent basis, Debye):
    X=              0.0257    Y=              0.0632    Z=             -0.0779  Tot=              0.1035
 Quadrupole moment (field-independent basis, Debye-Ang):
   XX=            -32.0436   YY=            -31.6575   ZZ=            -38.0167
   XY=             -0.7278   XZ=              0.2214   YZ=              0.7767

 Normal termination of Gaussian 16 at Fri Nov 10 19:28:04 2023.
