 Gaussian 16, Revision B.01,
 Gaussian 16:  EM64L-G16RevB.01 20-Dec-2017

 ---------------------------------
 # TD=(NStates=1) B3LYP/6-31G(d,p)
 ---------------------------------

 -------
 ABSSPCT
 -------
 Symbolic Z-matrix:
 Charge =  0 Multiplicity = 1

                         Standard orientation:
 ---------------------------------------------------------------------
 Center     Atomic      Atomic             Coordinates (Angstroms)
 Number     Number       Type             X           Y           Z
 ---------------------------------------------------------------------
      1          6           0       -1.243961    0.668626   -0.083215
      2          6           0        0.026402    1.381857    0.063344
      3          6           0        1.196464    0.688420    0.024044
      4          6           0        1.249713   -0.741857   -0.063225
      5          6           0        0.007966   -1.373101    0.074497
      6          6           0       -1.184173   -0.649087   -0.053430
      7          1           0       -2.299085    1.016106    0.047866
      8          1           0       -2.131421   -1.229098    0.165942
      9          1           0       -0.164037   -2.339267    0.056394
     10          1           0        2.175211   -1.090184   -0.036020
     11          1           0        2.145708    1.237113   -0.073979
     12          1           0       -0.040841    2.556184    0.067708
 ---------------------------------------------------------------------

 SCF Done:  E(RB3LYP) =  -232.205347188     A.U. after   13 cycles

 Excitation energies and oscillator strengths:

 Excited State   1:      Singlet-A      5.4609 eV  227.04 nm  f=0.0039  <S**2>=0.000
      20 -> 22         0.49017
      20 -> 23         0.14628
      21 -> 22        -0.23676
      21 -> 23         0.42637
 This state for optimization and/or second-order correction.
 Total Energy, E(TD-HF/TD-DFT) =  -232.004664153
 Copying the excited state density for this state as the 1-particle RhoCI density.

 The electronic state is 1-A.
 Alpha  occ. eigenvalues --  -10.20089 -10.18935 -10.18836 -10.18662 -10.17999
 Alpha  occ. eigenvalues --  -10.17861  -0.85071  -0.75089  -0.73755  -0.61963
 Alpha  occ. eigenvalues --   -0.58093  -0.52167  -0.46309  -0.43778  -0.41906
 Alpha  occ. eigenvalues --   -0.41008  -0.36103  -0.34172  -0.32743  -0.25345
 Alpha  occ. eigenvalues --   -0.24360
 Alpha virt. eigenvalues --   -0.01084   0.00863   0.08380   0.13105   0.14621
 Alpha virt. eigenvalues --    0.15518   0.16724   0.19235   0.20680   0.28438
 Alpha virt. eigenvalues --    0.29082   0.32208   0.32940   0.46281   0.51102

 Mulliken charges:
               1
     1  C   -0.080385
     2  C   -0.094177
     3  C   -0.098685
     4  C   -0.059915
     5  C   -0.065489
     6  C   -0.088798
     7  H    0.088772
     8  H    0.076446
     9  H    0.073563
    10  H    0.081943
    11  H    0.085399
    12  H    0.081328
 Sum of Mulliken charges =  -0.00000

 Dipole moment (field-independent basis, Debye):
    X=              0.0437    Y=             -0.1187    Z=              0.1281  Tot=              0.1800
 Quadrupole moment (field-independent basis, Debye-Ang):
   XX=            -30.9590   YY=            -32.5155   ZZ=            -38.3797
   XY=              0.1857   XZ=             -0.6275   YZ=             -0.1562

 Normal termination of Gaussian 16 at Fri Nov 10 17:56:13 2023.
