 Gaussian 16, Revision B.01,
 Gaussian 16:  EM64L-G16RevB.01 20-Dec-2017

 ---------------------------------
 # TD=(NStates=1) B3LYP/6-31G(d,p)
 ---------------------------------

 -------
 ABSSPCT
 -------
 Symbolic Z-matrix:
 Charge =  0 Multiplicity = 1

                         Standard orientation:
 ---------------------------------------------------------------------
 Center     Atomic      Atomic             Coordinates (Angstroms)
 Number     Number       Type             X           Y           Z
 ---------------------------------------------------------------------
      1          6           0       -1.252821    0.575872   -0.005915
      2          6           0       -1.196655   -0.735521    0.033707
      3          6           0        0.064789   -1.373539   -0.061809
      4          6           0        1.262049   -0.625268   -0.045982
      5          6           0        1.207702    0.771068   -0.033710
      6          6           0       -0.084253    1.375782   -0.006008
      7          1           0       -2.226398    1.037176    0.071458
      8          1           0       -0.331022    2.505704   -0.094826
      9          1           0        2.047654    1.431110    0.355082
     10          1           0        2.308281   -1.071384    0.149786
     11          1           0        0.293551   -2.481350    0.151608
     12          1           0       -2.096939   -1.351617    0.085189
 ---------------------------------------------------------------------

 SCF Done:  E(RB3LYP) =  -232.223153097     A.U. after   13 cycles

 Excitation energies and oscillator strengths:

 Excited State   1:      Singlet-A      5.4071 eV  229.30 nm  f=0.0006  <S**2>=0.000
      20 -> 22        -0.48579
      21 -> 23         0.50238
 This state for optimization and/or second-order correction.
 Total Energy, E(TD-HF/TD-DFT) =  -232.024445736
 Copying the excited state density for this state as the 1-particle RhoCI density.

 The electronic state is 1-A.
 Alpha  occ. eigenvalues --  -10.19938 -10.19898 -10.19850 -10.19733 -10.18702
 Alpha  occ. eigenvalues --  -10.18130  -0.85004  -0.75074  -0.72846  -0.59939
 Alpha  occ. eigenvalues --   -0.58812  -0.51105  -0.45597  -0.43192  -0.42255
 Alpha  occ. eigenvalues --   -0.39841  -0.36220  -0.33528  -0.33266  -0.25705
 Alpha  occ. eigenvalues --   -0.23934
 Alpha virt. eigenvalues --   -0.01142   0.00487   0.07509   0.12755   0.13381
 Alpha virt. eigenvalues --    0.14559   0.16252   0.17998   0.18950   0.28479
 Alpha virt. eigenvalues --    0.30104   0.31038   0.32840   0.45787   0.51464

 Mulliken charges:
               1
     1  C   -0.067446
     2  C   -0.071279
     3  C   -0.099201
     4  C   -0.091280
     5  C   -0.097396
     6  C   -0.096749
     7  H    0.083040
     8  H    0.083533
     9  H    0.093431
    10  H    0.089566
    11  H    0.084891
    12  H    0.088889
 Sum of Mulliken charges =  -0.00000

 Dipole moment (field-independent basis, Debye):
    X=             -0.1467    Y=              0.0033    Z=              0.4356  Tot=              0.4596
 Quadrupole moment (field-independent basis, Debye-Ang):
   XX=            -31.5090   YY=            -32.4037   ZZ=            -38.5681
   XY=             -0.3235   XZ=              0.7019   YZ=             -0.2349

 Normal termination of Gaussian 16 at Fri Nov 10 17:44:44 2023.
