 Gaussian 16, Revision B.01,
 Gaussian 16:  EM64L-G16RevB.01 20-Dec-2017

 ---------------------------------
 # TD=(NStates=1) B3LYP/6-31G(d,p)
 ---------------------------------

 -------
 ABSSPCT
 -------
 Symbolic Z-matrix:
 Charge =  0 Multiplicity = 1

                         Standard orientation:
 ---------------------------------------------------------------------
 Center     Atomic      Atomic             Coordinates (Angstroms)
 Number     Number       Type             X           Y           Z
 ---------------------------------------------------------------------
      1          6           0       -1.034576   -1.034396   -0.028166
      2          6           0       -1.332211    0.298953    0.067517
      3          6           0       -0.378263    1.336698    0.002728
      4          6           0        0.935453    0.945685   -0.015985
      5          6           0        1.415281   -0.288576   -0.005084
      6          6           0        0.397038   -1.273293   -0.007347
      7          1           0       -1.533643   -1.896816   -0.097046
      8          1           0        0.642431   -2.287785    0.049324
      9          1           0        2.549561   -0.629296    0.139183
     10          1           0        1.638242    1.796876   -0.096788
     11          1           0       -0.768793    2.423931   -0.028383
     12          1           0       -2.544127    0.682666   -0.048264
 ---------------------------------------------------------------------

 SCF Done:  E(RB3LYP) =  -232.197034466     A.U. after   13 cycles

 Excitation energies and oscillator strengths:

 Excited State   1:      Singlet-A      5.5572 eV  223.11 nm  f=0.0010  <S**2>=0.000
      20 -> 22        -0.47484
      21 -> 23         0.52016
 This state for optimization and/or second-order correction.
 Total Energy, E(TD-HF/TD-DFT) =  -231.992811300
 Copying the excited state density for this state as the 1-particle RhoCI density.

 The electronic state is 1-A.
 Alpha  occ. eigenvalues --  -10.20680 -10.19657 -10.19542 -10.18838 -10.18677
 Alpha  occ. eigenvalues --  -10.18439  -0.85533  -0.75232  -0.73491  -0.60037
 Alpha  occ. eigenvalues --   -0.59577  -0.51328  -0.46122  -0.44103  -0.41468
 Alpha  occ. eigenvalues --   -0.40626  -0.36633  -0.33928  -0.31373  -0.25911
 Alpha  occ. eigenvalues --   -0.24121
 Alpha virt. eigenvalues --   -0.00576   0.00690   0.06669   0.10704   0.14440
 Alpha virt. eigenvalues --    0.15213   0.16566   0.17685   0.20119   0.26344
 Alpha virt. eigenvalues --    0.29660   0.33103   0.35005   0.43925   0.48597

 Mulliken charges:
               1
     1  C   -0.030221
     2  C   -0.103725
     3  C   -0.063925
     4  C   -0.091615
     5  C   -0.058886
     6  C   -0.125355
     7  H    0.086945
     8  H    0.074343
     9  H    0.094629
    10  H    0.073149
    11  H    0.096895
    12  H    0.047767
 Sum of Mulliken charges =  -0.00000

 Dipole moment (field-independent basis, Debye):
    X=              0.1991    Y=             -0.2086    Z=             -0.0379  Tot=              0.2908
 Quadrupole moment (field-independent basis, Debye-Ang):
   XX=            -32.6452   YY=            -31.2004   ZZ=            -38.6209
   XY=             -0.0688   XZ=              0.4635   YZ=             -0.2133

 Normal termination of Gaussian 16 at Fri Nov 10 16:21:17 2023.
