 Gaussian 16, Revision B.01,
 Gaussian 16:  EM64L-G16RevB.01 20-Dec-2017

 ---------------------------------
 # TD=(NStates=1) B3LYP/6-31G(d,p)
 ---------------------------------

 -------
 ABSSPCT
 -------
 Symbolic Z-matrix:
 Charge =  0 Multiplicity = 1

                         Standard orientation:
 ---------------------------------------------------------------------
 Center     Atomic      Atomic             Coordinates (Angstroms)
 Number     Number       Type             X           Y           Z
 ---------------------------------------------------------------------
      1          6           0        1.377878    0.321804   -0.030964
      2          6           0        0.975733   -0.995122    0.009664
      3          6           0       -0.431403   -1.296806    0.006366
      4          6           0       -1.425845   -0.322984   -0.073712
      5          6           0       -0.930924    0.931259   -0.074369
      6          6           0        0.367954    1.337959    0.041925
      7          1           0        2.458038    0.442169    0.022853
      8          1           0        0.846818    2.282620    0.108060
      9          1           0       -1.592951    1.819835    0.183388
     10          1           0       -2.426980   -0.400664    0.238996
     11          1           0       -0.628379   -2.181524    0.210911
     12          1           0        1.743091   -1.819090   -0.037666
 ---------------------------------------------------------------------

 SCF Done:  E(RB3LYP) =  -232.196902548     A.U. after   13 cycles

 Excitation energies and oscillator strengths:

 Excited State   1:      Singlet-A      5.4070 eV  229.30 nm  f=0.0053  <S**2>=0.000
      20 -> 22        -0.38366
      20 -> 23         0.24238
      21 -> 22         0.37345
      21 -> 23         0.39242
 This state for optimization and/or second-order correction.
 Total Energy, E(TD-HF/TD-DFT) =  -231.998199427
 Copying the excited state density for this state as the 1-particle RhoCI density.

 The electronic state is 1-A.
 Alpha  occ. eigenvalues --  -10.18953 -10.18632 -10.18579 -10.18516 -10.18388
 Alpha  occ. eigenvalues --  -10.17674  -0.85244  -0.75059  -0.74004  -0.61790
 Alpha  occ. eigenvalues --   -0.58932  -0.52356  -0.47053  -0.43688  -0.43151
 Alpha  occ. eigenvalues --   -0.40290  -0.36032  -0.34605  -0.32153  -0.25392
 Alpha  occ. eigenvalues --   -0.24033
 Alpha virt. eigenvalues --   -0.00820   0.00592   0.09251   0.13399   0.14720
 Alpha virt. eigenvalues --    0.15576   0.18077   0.19030   0.20320   0.29208
 Alpha virt. eigenvalues --    0.29723   0.31963   0.33393   0.45050   0.50813

 Mulliken charges:
               1
     1  C   -0.093183
     2  C   -0.086941
     3  C   -0.071814
     4  C   -0.068287
     5  C   -0.100958
     6  C   -0.068542
     7  H    0.083096
     8  H    0.091905
     9  H    0.070164
    10  H    0.099014
    11  H    0.062860
    12  H    0.082685
 Sum of Mulliken charges =  -0.00000

 Dipole moment (field-independent basis, Debye):
    X=              0.1670    Y=             -0.0799    Z=              0.4469  Tot=              0.4837
 Quadrupole moment (field-independent basis, Debye-Ang):
   XX=            -31.3001   YY=            -32.3049   ZZ=            -38.1386
   XY=              0.2068   XZ=             -0.7728   YZ=              0.0433

 Normal termination of Gaussian 16 at Fri Nov 10 16:25:46 2023.
