 Gaussian 16, Revision B.01,
 Gaussian 16:  EM64L-G16RevB.01 20-Dec-2017

 ---------------------------------
 # TD=(NStates=1) B3LYP/6-31G(d,p)
 ---------------------------------

 -------
 ABSSPCT
 -------
 Symbolic Z-matrix:
 Charge =  0 Multiplicity = 1

                         Standard orientation:
 ---------------------------------------------------------------------
 Center     Atomic      Atomic             Coordinates (Angstroms)
 Number     Number       Type             X           Y           Z
 ---------------------------------------------------------------------
      1          6           0        0.744582    1.092243   -0.002123
      2          6           0        1.397604   -0.200031    0.023829
      3          6           0        0.568059   -1.234795   -0.021230
      4          6           0       -0.862238   -1.108437   -0.023541
      5          6           0       -1.383353    0.093424    0.050871
      6          6           0       -0.541782    1.252577   -0.042005
      7          1           0        1.623522    1.963565   -0.055887
      8          1           0       -0.714062    2.393697   -0.008969
      9          1           0       -2.450936    0.514664    0.067327
     10          1           0       -1.412772   -1.907279    0.006804
     11          1           0        1.008841   -2.021926   -0.087223
     12          1           0        2.408178   -0.312607    0.163141
 ---------------------------------------------------------------------

 SCF Done:  E(RB3LYP) =  -232.152566879     A.U. after   13 cycles

 Excitation energies and oscillator strengths:

 Excited State   1:      Singlet-A      5.8451 eV  212.12 nm  f=0.0014  <S**2>=0.000
      20 -> 22         0.47387
      20 -> 23         0.20216
      21 -> 22         0.23637
      21 -> 23        -0.42207
 This state for optimization and/or second-order correction.
 Total Energy, E(TD-HF/TD-DFT) =  -231.937764436
 Copying the excited state density for this state as the 1-particle RhoCI density.

 The electronic state is 1-A.
 Alpha  occ. eigenvalues --  -10.19383 -10.18820 -10.18313 -10.17639 -10.17365
 Alpha  occ. eigenvalues --  -10.16372  -0.86078  -0.75706  -0.74981  -0.60727
 Alpha  occ. eigenvalues --   -0.60417  -0.53001  -0.46018  -0.44584  -0.42592
 Alpha  occ. eigenvalues --   -0.41471  -0.36899  -0.33497  -0.31373  -0.25339
 Alpha  occ. eigenvalues --   -0.25213
 Alpha virt. eigenvalues --    0.00428   0.01253   0.07786   0.12712   0.14934
 Alpha virt. eigenvalues --    0.16148   0.17101   0.18650   0.21524   0.28585
 Alpha virt. eigenvalues --    0.30062   0.33513   0.35045   0.45233   0.50452

 Mulliken charges:
               1
     1  C   -0.071866
     2  C   -0.073480
     3  C   -0.041164
     4  C   -0.057943
     5  C   -0.098961
     6  C   -0.092604
     7  H    0.053020
     8  H    0.092040
     9  H    0.090653
    10  H    0.075023
    11  H    0.042456
    12  H    0.082827
 Sum of Mulliken charges =  -0.00000

 Dipole moment (field-independent basis, Debye):
    X=              0.1479    Y=             -0.2253    Z=              0.0685  Tot=              0.2781
 Quadrupole moment (field-independent basis, Debye-Ang):
   XX=            -31.6655   YY=            -31.9218   ZZ=            -38.0162
   XY=             -0.4099   XZ=              0.0757   YZ=              0.0748

 Normal termination of Gaussian 16 at Fri Nov 10 16:37:43 2023.
