 Gaussian 16, Revision B.01,
 Gaussian 16:  EM64L-G16RevB.01 20-Dec-2017

 ---------------------------------
 # TD=(NStates=1) B3LYP/6-31G(d,p)
 ---------------------------------

 -------
 ABSSPCT
 -------
 Symbolic Z-matrix:
 Charge =  0 Multiplicity = 1

                         Standard orientation:
 ---------------------------------------------------------------------
 Center     Atomic      Atomic             Coordinates (Angstroms)
 Number     Number       Type             X           Y           Z
 ---------------------------------------------------------------------
      1          6           0       -0.175714   -1.326683   -0.018953
      2          6           0        1.162730   -0.882316    0.004643
      3          6           0        1.336589    0.522409    0.036126
      4          6           0        0.210337    1.346693   -0.033272
      5          6           0       -1.131639    0.827045    0.032901
      6          6           0       -1.362637   -0.492367   -0.083593
      7          1           0       -0.319851   -2.362895    0.222490
      8          1           0       -2.415646   -1.046326    0.133153
      9          1           0       -1.962720    1.414244    0.038050
     10          1           0        0.270618    2.501388    0.129117
     11          1           0        2.213787    0.890130   -0.131823
     12          1           0        1.975809   -1.365220   -0.018099
 ---------------------------------------------------------------------

 SCF Done:  E(RB3LYP) =  -232.187938944     A.U. after   13 cycles

 Excitation energies and oscillator strengths:

 Excited State   1:      Singlet-A      5.2741 eV  235.08 nm  f=0.0040  <S**2>=0.000
      20 -> 22         0.42846
      20 -> 23        -0.11980
      21 -> 22         0.19139
      21 -> 23         0.51480
 This state for optimization and/or second-order correction.
 Total Energy, E(TD-HF/TD-DFT) =  -231.994119282
 Copying the excited state density for this state as the 1-particle RhoCI density.

 The electronic state is 1-A.
 Alpha  occ. eigenvalues --  -10.20056 -10.19801 -10.19156 -10.18296 -10.17880
 Alpha  occ. eigenvalues --  -10.17812  -0.84417  -0.75668  -0.72719  -0.61082
 Alpha  occ. eigenvalues --   -0.59723  -0.51857  -0.47769  -0.43635  -0.42529
 Alpha  occ. eigenvalues --   -0.39848  -0.35924  -0.34621  -0.32602  -0.25504
 Alpha  occ. eigenvalues --   -0.23632
 Alpha virt. eigenvalues --   -0.00887  -0.00142   0.08531   0.13320   0.14257
 Alpha virt. eigenvalues --    0.16141   0.17386   0.18854   0.20866   0.27531
 Alpha virt. eigenvalues --    0.29634   0.31685   0.32224   0.45596   0.49880

 Mulliken charges:
               1
     1  C   -0.106162
     2  C   -0.040641
     3  C   -0.074923
     4  C   -0.095256
     5  C   -0.072237
     6  C   -0.082885
     7  H    0.079055
     8  H    0.086519
     9  H    0.083655
    10  H    0.076389
    11  H    0.078257
    12  H    0.068229
 Sum of Mulliken charges =  -0.00000

 Dipole moment (field-independent basis, Debye):
    X=              0.0802    Y=             -0.0382    Z=              0.2185  Tot=              0.2359
 Quadrupole moment (field-independent basis, Debye-Ang):
   XX=            -30.6531   YY=            -32.5774   ZZ=            -38.3641
   XY=             -0.1952   XZ=             -0.6487   YZ=             -0.3180

 Normal termination of Gaussian 16 at Fri Nov 10 17:41:23 2023.
