 Gaussian 16, Revision B.01,
 Gaussian 16:  EM64L-G16RevB.01 20-Dec-2017

 ---------------------------------
 # TD=(NStates=1) B3LYP/6-31G(d,p)
 ---------------------------------

 -------
 ABSSPCT
 -------
 Symbolic Z-matrix:
 Charge =  0 Multiplicity = 1

                         Standard orientation:
 ---------------------------------------------------------------------
 Center     Atomic      Atomic             Coordinates (Angstroms)
 Number     Number       Type             X           Y           Z
 ---------------------------------------------------------------------
      1          6           0        0.527940    1.283490   -0.034939
      2          6           0        1.430373    0.215812   -0.035302
      3          6           0        0.869305   -1.109236    0.060824
      4          6           0       -0.549874   -1.295637   -0.030904
      5          6           0       -1.416771   -0.195384    0.063762
      6          6           0       -0.848683    1.068298   -0.033720
      7          1           0        0.878613    2.276672    0.232168
      8          1           0       -1.541554    2.025951   -0.126831
      9          1           0       -2.559796   -0.231185    0.096579
     10          1           0       -0.964099   -2.212584   -0.132121
     11          1           0        1.534059   -1.970116   -0.101482
     12          1           0        2.579045    0.307208    0.093356
 ---------------------------------------------------------------------

 SCF Done:  E(RB3LYP) =  -232.226990732     A.U. after   13 cycles

 Excitation energies and oscillator strengths:

 Excited State   1:      Singlet-A      5.2470 eV  236.29 nm  f=0.0008  <S**2>=0.000
      20 -> 22         0.44271
      20 -> 23         0.16738
      21 -> 22        -0.21078
      21 -> 23         0.48069
 This state for optimization and/or second-order correction.
 Total Energy, E(TD-HF/TD-DFT) =  -232.034165821
 Copying the excited state density for this state as the 1-particle RhoCI density.

 The electronic state is 1-A.
 Alpha  occ. eigenvalues --  -10.20183 -10.19735 -10.19697 -10.19639 -10.18943
 Alpha  occ. eigenvalues --  -10.18905  -0.84276  -0.74148  -0.73243  -0.60021
 Alpha  occ. eigenvalues --   -0.58855  -0.51029  -0.45673  -0.43559  -0.41814
 Alpha  occ. eigenvalues --   -0.40422  -0.35971  -0.34042  -0.33161  -0.24794
 Alpha  occ. eigenvalues --   -0.24152
 Alpha virt. eigenvalues --   -0.00617  -0.00494   0.07885   0.12436   0.13818
 Alpha virt. eigenvalues --    0.15043   0.17040   0.17843   0.18515   0.28104
 Alpha virt. eigenvalues --    0.29793   0.31187   0.31860   0.46736   0.50515

 Mulliken charges:
               1
     1  C   -0.079850
     2  C   -0.096671
     3  C   -0.096520
     4  C   -0.083089
     5  C   -0.077975
     6  C   -0.085387
     7  H    0.090592
     8  H    0.077029
     9  H    0.089558
    10  H    0.085377
    11  H    0.086917
    12  H    0.090020
 Sum of Mulliken charges =  -0.00000

 Dipole moment (field-independent basis, Debye):
    X=             -0.0856    Y=             -0.0616    Z=              0.0334  Tot=              0.1106
 Quadrupole moment (field-independent basis, Debye-Ang):
   XX=            -31.3770   YY=            -32.0719   ZZ=            -38.7253
   XY=             -0.0235   XZ=              0.3057   YZ=              0.7007

 Normal termination of Gaussian 16 at Fri Nov 10 17:10:22 2023.
