 Gaussian 16, Revision B.01,
 Gaussian 16:  EM64L-G16RevB.01 20-Dec-2017

 ---------------------------------
 # TD=(NStates=1) B3LYP/6-31G(d,p)
 ---------------------------------

 -------
 ABSSPCT
 -------
 Symbolic Z-matrix:
 Charge =  0 Multiplicity = 1

                         Standard orientation:
 ---------------------------------------------------------------------
 Center     Atomic      Atomic             Coordinates (Angstroms)
 Number     Number       Type             X           Y           Z
 ---------------------------------------------------------------------
      1          6           0       -1.382440    0.121099    0.053609
      2          6           0       -0.833707   -1.119788   -0.056263
      3          6           0        0.507316   -1.187840    0.083081
      4          6           0        1.410194   -0.170152   -0.073929
      5          6           0        0.854384    1.093137    0.033671
      6          6           0       -0.526775    1.276936   -0.031013
      7          1           0       -2.443925    0.349890   -0.118188
      8          1           0       -1.219630    2.090675   -0.042416
      9          1           0        1.432050    1.895121    0.135873
     10          1           0        2.472738   -0.386541   -0.051791
     11          1           0        1.075351   -2.131217   -0.042741
     12          1           0       -1.490416   -1.898287    0.064335
 ---------------------------------------------------------------------

 SCF Done:  E(RB3LYP) =  -232.207465100     A.U. after   13 cycles

 Excitation energies and oscillator strengths:

 Excited State   1:      Singlet-A      5.4887 eV  225.89 nm  f=0.0026  <S**2>=0.000
      20 -> 22        -0.32651
      20 -> 23        -0.32410
      21 -> 22         0.41920
      21 -> 23        -0.33448
 This state for optimization and/or second-order correction.
 Total Energy, E(TD-HF/TD-DFT) =  -232.005757887
 Copying the excited state density for this state as the 1-particle RhoCI density.

 The electronic state is 1-A.
 Alpha  occ. eigenvalues --  -10.18556 -10.18486 -10.18333 -10.18117 -10.17959
 Alpha  occ. eigenvalues --  -10.17480  -0.85755  -0.75399  -0.74043  -0.61502
 Alpha  occ. eigenvalues --   -0.59198  -0.52680  -0.46175  -0.45265  -0.43003
 Alpha  occ. eigenvalues --   -0.39633  -0.36913  -0.34612  -0.31677  -0.25314
 Alpha  occ. eigenvalues --   -0.24369
 Alpha virt. eigenvalues --   -0.00232   0.00297   0.09166   0.13826   0.14831
 Alpha virt. eigenvalues --    0.16159   0.17933   0.19799   0.20448   0.28114
 Alpha virt. eigenvalues --    0.30232   0.32934   0.34888   0.44694   0.46595

 Mulliken charges:
               1
     1  C   -0.108655
     2  C   -0.056981
     3  C   -0.086842
     4  C   -0.080858
     5  C   -0.077730
     6  C   -0.075532
     7  H    0.078561
     8  H    0.088066
     9  H    0.074467
    10  H    0.093989
    11  H    0.066552
    12  H    0.084962
 Sum of Mulliken charges =  -0.00000

 Dipole moment (field-independent basis, Debye):
    X=              0.0074    Y=              0.0783    Z=             -0.0196  Tot=              0.0811
 Quadrupole moment (field-independent basis, Debye-Ang):
   XX=            -30.6640   YY=            -32.8966   ZZ=            -38.1064
   XY=             -0.3563   XZ=              0.1963   YZ=              0.0974

 Normal termination of Gaussian 16 at Fri Nov 10 17:55:27 2023.
