 Gaussian 16, Revision B.01,
 Gaussian 16:  EM64L-G16RevB.01 20-Dec-2017

 ---------------------------------
 # TD=(NStates=1) B3LYP/6-31G(d,p)
 ---------------------------------

 -------
 ABSSPCT
 -------
 Symbolic Z-matrix:
 Charge =  0 Multiplicity = 1

                         Standard orientation:
 ---------------------------------------------------------------------
 Center     Atomic      Atomic             Coordinates (Angstroms)
 Number     Number       Type             X           Y           Z
 ---------------------------------------------------------------------
      1          6           0        0.404018   -1.323169    0.075761
      2          6           0       -0.995346   -0.999829    0.000367
      3          6           0       -1.335104    0.345492    0.008738
      4          6           0       -0.440035    1.355093    0.015203
      5          6           0        0.994178    0.962642   -0.016025
      6          6           0        1.407083   -0.346023   -0.082070
      7          1           0        0.590481   -2.261883   -0.074300
      8          1           0        2.294762   -0.599042    0.048052
      9          1           0        1.892358    1.737292    0.178434
     10          1           0       -0.732543    2.495342   -0.036360
     11          1           0       -2.449184    0.622443   -0.086979
     12          1           0       -1.804627   -1.959386   -0.040688
 ---------------------------------------------------------------------

 SCF Done:  E(RB3LYP) =  -232.175339589     A.U. after   14 cycles

 Excitation energies and oscillator strengths:

 Excited State   1:      Singlet-A      5.3756 eV  230.64 nm  f=0.0009  <S**2>=0.000
      20 -> 22         0.48528
      21 -> 23         0.50349
 This state for optimization and/or second-order correction.
 Total Energy, E(TD-HF/TD-DFT) =  -231.977790031
 Copying the excited state density for this state as the 1-particle RhoCI density.

 The electronic state is 1-A.
 Alpha  occ. eigenvalues --  -10.20720 -10.20572 -10.20542 -10.19452 -10.18039
 Alpha  occ. eigenvalues --  -10.17473  -0.84635  -0.75551  -0.72691  -0.60441
 Alpha  occ. eigenvalues --   -0.59269  -0.51157  -0.46071  -0.43642  -0.42601
 Alpha  occ. eigenvalues --   -0.39427  -0.36116  -0.33821  -0.32621  -0.25865
 Alpha  occ. eigenvalues --   -0.23762
 Alpha virt. eigenvalues --   -0.01393   0.00493   0.06613   0.11232   0.13594
 Alpha virt. eigenvalues --    0.14853   0.16074   0.17917   0.20845   0.26930
 Alpha virt. eigenvalues --    0.29185   0.31441   0.33276   0.45687   0.49293

 Mulliken charges:
               1
     1  C   -0.085359
     2  C   -0.089999
     3  C   -0.074087
     4  C   -0.085673
     5  C   -0.109260
     6  C   -0.033025
     7  H    0.076499
     8  H    0.072613
     9  H    0.073213
    10  H    0.094934
    11  H    0.079302
    12  H    0.080843
 Sum of Mulliken charges =  -0.00000

 Dipole moment (field-independent basis, Debye):
    X=              0.0828    Y=             -0.1096    Z=             -0.0113  Tot=              0.1378
 Quadrupole moment (field-independent basis, Debye-Ang):
   XX=            -31.7394   YY=            -31.7343   ZZ=            -38.6977
   XY=             -0.2338   XZ=              0.5623   YZ=              0.2939

 Normal termination of Gaussian 16 at Fri Nov 10 17:21:59 2023.
