 Gaussian 16, Revision B.01,
 Gaussian 16:  EM64L-G16RevB.01 20-Dec-2017

 ---------------------------------
 # TD=(NStates=1) B3LYP/6-31G(d,p)
 ---------------------------------

 -------
 ABSSPCT
 -------
 Symbolic Z-matrix:
 Charge =  0 Multiplicity = 1

                         Standard orientation:
 ---------------------------------------------------------------------
 Center     Atomic      Atomic             Coordinates (Angstroms)
 Number     Number       Type             X           Y           Z
 ---------------------------------------------------------------------
      1          6           0        1.255166   -0.587330   -0.030071
      2          6           0        0.093632   -1.390030   -0.000825
      3          6           0       -1.209007   -0.810280   -0.000397
      4          6           0       -1.242471    0.653227    0.023661
      5          6           0       -0.113466    1.353038    0.008949
      6          6           0        1.215207    0.762828   -0.028433
      7          1           0        2.093181   -1.187168    0.005399
      8          1           0        2.260103    1.237746    0.194410
      9          1           0       -0.217773    2.552427   -0.005236
     10          1           0       -2.178775    1.168280   -0.150372
     11          1           0       -2.166678   -1.315128    0.080242
     12          1           0        0.215577   -2.344874    0.038248
 ---------------------------------------------------------------------

 SCF Done:  E(RB3LYP) =  -232.208767776     A.U. after   14 cycles

 Excitation energies and oscillator strengths:

 Excited State   1:      Singlet-A      5.4346 eV  228.14 nm  f=0.0027  <S**2>=0.000
      20 -> 22         0.51335
      21 -> 22        -0.16612
      21 -> 23         0.44651
 This state for optimization and/or second-order correction.
 Total Energy, E(TD-HF/TD-DFT) =  -232.009050973
 Copying the excited state density for this state as the 1-particle RhoCI density.

 The electronic state is 1-A.
 Alpha  occ. eigenvalues --  -10.19919 -10.19882 -10.19835 -10.18645 -10.17943
 Alpha  occ. eigenvalues --  -10.17894  -0.84522  -0.75033  -0.73260  -0.60962
 Alpha  occ. eigenvalues --   -0.58858  -0.51534  -0.46446  -0.43592  -0.41827
 Alpha  occ. eigenvalues --   -0.41095  -0.36148  -0.33863  -0.32690  -0.25357
 Alpha  occ. eigenvalues --   -0.24114
 Alpha virt. eigenvalues --   -0.01190   0.00950   0.08211   0.12870   0.14438
 Alpha virt. eigenvalues --    0.15791   0.16096   0.18228   0.20807   0.28106
 Alpha virt. eigenvalues --    0.29345   0.30999   0.32789   0.46401   0.51000

 Mulliken charges:
               1
     1  C   -0.063342
     2  C   -0.063760
     3  C   -0.099359
     4  C   -0.075213
     5  C   -0.093295
     6  C   -0.097569
     7  H    0.080930
     8  H    0.091747
     9  H    0.071056
    10  H    0.088898
    11  H    0.092175
    12  H    0.067731
 Sum of Mulliken charges =  -0.00000

 Dipole moment (field-independent basis, Debye):
    X=              0.0004    Y=             -0.2878    Z=              0.1036  Tot=              0.3059
 Quadrupole moment (field-independent basis, Debye-Ang):
   XX=            -31.0117   YY=            -32.2058   ZZ=            -38.5281
   XY=             -0.4224   XZ=              0.5358   YZ=             -0.1470

 Normal termination of Gaussian 16 at Fri Nov 10 16:51:17 2023.
