 Gaussian 16, Revision B.01,
 Gaussian 16:  EM64L-G16RevB.01 20-Dec-2017

 ---------------------------------
 # TD=(NStates=1) B3LYP/6-31G(d,p)
 ---------------------------------

 -------
 ABSSPCT
 -------
 Symbolic Z-matrix:
 Charge =  0 Multiplicity = 1

                         Standard orientation:
 ---------------------------------------------------------------------
 Center     Atomic      Atomic             Coordinates (Angstroms)
 Number     Number       Type             X           Y           Z
 ---------------------------------------------------------------------
      1          6           0        1.220698    0.675110   -0.003617
      2          6           0        1.217364   -0.654303    0.035635
      3          6           0        0.032264   -1.386617   -0.048644
      4          6           0       -1.252187   -0.673783   -0.012576
      5          6           0       -1.148586    0.637220    0.000887
      6          6           0       -0.053554    1.411846   -0.040655
      7          1           0        2.119721    1.097400    0.025208
      8          1           0        0.025101    2.503899    0.041688
      9          1           0       -2.132820    1.145282    0.129607
     10          1           0       -2.232458   -1.129353    0.137149
     11          1           0       -0.057798   -2.426723   -0.012215
     12          1           0        2.182259   -1.247343    0.092386
 ---------------------------------------------------------------------

 SCF Done:  E(RB3LYP) =  -232.215850278     A.U. after   13 cycles

 Excitation energies and oscillator strengths:

 Excited State   1:      Singlet-A      5.6130 eV  220.89 nm  f=0.0029  <S**2>=0.000
      20 -> 22         0.53971
      21 -> 23        -0.45248
 This state for optimization and/or second-order correction.
 Total Energy, E(TD-HF/TD-DFT) =  -232.009577192
 Copying the excited state density for this state as the 1-particle RhoCI density.

 The electronic state is 1-A.
 Alpha  occ. eigenvalues --  -10.19109 -10.18914 -10.18525 -10.18503 -10.17758
 Alpha  occ. eigenvalues --  -10.17541  -0.85414  -0.75818  -0.73190  -0.61958
 Alpha  occ. eigenvalues --   -0.58166  -0.52166  -0.46752  -0.44142  -0.41774
 Alpha  occ. eigenvalues --   -0.40604  -0.36497  -0.36220  -0.31081  -0.26210
 Alpha  occ. eigenvalues --   -0.23531
 Alpha virt. eigenvalues --   -0.01589   0.02477   0.08837   0.13340   0.15217
 Alpha virt. eigenvalues --    0.16280   0.17591   0.19331   0.19829   0.28285
 Alpha virt. eigenvalues --    0.29431   0.32057   0.34777   0.45830   0.51716

 Mulliken charges:
               1
     1  C   -0.087971
     2  C   -0.060697
     3  C   -0.110745
     4  C   -0.078736
     5  C   -0.068411
     6  C   -0.082278
     7  H    0.075437
     8  H    0.092985
     9  H    0.065359
    10  H    0.091913
    11  H    0.082921
    12  H    0.080222
 Sum of Mulliken charges =  -0.00000

 Dipole moment (field-independent basis, Debye):
    X=              0.0460    Y=             -0.0271    Z=              0.2412  Tot=              0.2471
 Quadrupole moment (field-independent basis, Debye-Ang):
   XX=            -31.4116   YY=            -31.7850   ZZ=            -38.2698
   XY=              0.5970   XZ=             -0.2560   YZ=              0.0198

 Normal termination of Gaussian 16 at Fri Nov 10 18:58:24 2023.
