 Gaussian 16, Revision B.01,
 Gaussian 16:  EM64L-G16RevB.01 20-Dec-2017

 ---------------------------------
 # TD=(NStates=1) B3LYP/6-31G(d,p)
 ---------------------------------

 -------
 ABSSPCT
 -------
 Symbolic Z-matrix:
 Charge =  0 Multiplicity = 1

                         Standard orientation:
 ---------------------------------------------------------------------
 Center     Atomic      Atomic             Coordinates (Angstroms)
 Number     Number       Type             X           Y           Z
 ---------------------------------------------------------------------
      1          6           0       -0.767740   -1.205725    0.064040
      2          6           0       -1.425568    0.082806   -0.061437
      3          6           0       -0.638628    1.250938    0.016461
      4          6           0        0.745277    1.155390    0.026953
      5          6           0        1.435586   -0.082376   -0.032301
      6          6           0        0.655849   -1.230087   -0.076713
      7          1           0       -1.467740   -2.142673    0.221339
      8          1           0        1.196299   -2.029924    0.056799
      9          1           0        2.584652   -0.044217    0.029030
     10          1           0        1.243478    2.063744    0.212744
     11          1           0       -1.187046    2.265733   -0.108069
     12          1           0       -2.398303    0.061661   -0.033861
 ---------------------------------------------------------------------

 SCF Done:  E(RB3LYP) =  -232.208642028     A.U. after   13 cycles

 Excitation energies and oscillator strengths:

 Excited State   1:      Singlet-A      5.2898 eV  234.38 nm  f=0.0005  <S**2>=0.000
      20 -> 22        -0.47414
      20 -> 23         0.11869
      21 -> 22         0.15267
      21 -> 23         0.48726
 This state for optimization and/or second-order correction.
 Total Energy, E(TD-HF/TD-DFT) =  -232.014243966
 Copying the excited state density for this state as the 1-particle RhoCI density.

 The electronic state is 1-A.
 Alpha  occ. eigenvalues --  -10.20635 -10.19792 -10.19555 -10.18431 -10.18314
 Alpha  occ. eigenvalues --  -10.18204  -0.84054  -0.74454  -0.73294  -0.59974
 Alpha  occ. eigenvalues --   -0.59715  -0.52046  -0.46162  -0.43324  -0.41977
 Alpha  occ. eigenvalues --   -0.40616  -0.35740  -0.34759  -0.32731  -0.24884
 Alpha  occ. eigenvalues --   -0.23997
 Alpha virt. eigenvalues --   -0.00766  -0.00033   0.08520   0.12809   0.13648
 Alpha virt. eigenvalues --    0.14963   0.17940   0.18948   0.19571   0.28338
 Alpha virt. eigenvalues --    0.29930   0.30308   0.32180   0.46201   0.50397

 Mulliken charges:
               1
     1  C   -0.100846
     2  C   -0.067101
     3  C   -0.085838
     4  C   -0.081489
     5  C   -0.089382
     6  C   -0.075786
     7  H    0.087956
     8  H    0.077954
     9  H    0.093524
    10  H    0.081571
    11  H    0.083473
    12  H    0.075963
 Sum of Mulliken charges =  -0.00000

 Dipole moment (field-independent basis, Debye):
    X=             -0.0015    Y=              0.0110    Z=              0.2259  Tot=              0.2261
 Quadrupole moment (field-independent basis, Debye-Ang):
   XX=            -30.8671   YY=            -32.1137   ZZ=            -38.6000
   XY=              0.1289   XZ=              0.2668   YZ=             -0.3263

 Normal termination of Gaussian 16 at Fri Nov 10 17:47:22 2023.
