 Gaussian 16, Revision B.01,
 Gaussian 16:  EM64L-G16RevB.01 20-Dec-2017

 ---------------------------------
 # TD=(NStates=1) B3LYP/6-31G(d,p)
 ---------------------------------

 -------
 ABSSPCT
 -------
 Symbolic Z-matrix:
 Charge =  0 Multiplicity = 1

                         Standard orientation:
 ---------------------------------------------------------------------
 Center     Atomic      Atomic             Coordinates (Angstroms)
 Number     Number       Type             X           Y           Z
 ---------------------------------------------------------------------
      1          6           0        0.388110   -1.255694    0.006012
      2          6           0       -0.978619   -1.021931    0.019095
      3          6           0       -1.373219    0.272899    0.019566
      4          6           0       -0.433041    1.294109    0.022900
      5          6           0        0.983891    0.993815   -0.033651
      6          6           0        1.414457   -0.282685   -0.075264
      7          1           0        0.877029   -2.332384    0.244447
      8          1           0        2.373801   -0.699914    0.087341
      9          1           0        1.797518    1.868322    0.103892
     10          1           0       -0.940389    2.274980    0.137088
     11          1           0       -2.375624    0.608589   -0.175253
     12          1           0       -1.741814   -1.722672   -0.149469
 ---------------------------------------------------------------------

 SCF Done:  E(RB3LYP) =  -232.211929059     A.U. after   13 cycles

 Excitation energies and oscillator strengths:

 Excited State   1:      Singlet-A      5.4356 eV  228.10 nm  f=0.0037  <S**2>=0.000
      20 -> 22        -0.44420
      21 -> 23         0.54952
 This state for optimization and/or second-order correction.
 Total Energy, E(TD-HF/TD-DFT) =  -232.012173650
 Copying the excited state density for this state as the 1-particle RhoCI density.

 The electronic state is 1-A.
 Alpha  occ. eigenvalues --  -10.20552 -10.19869 -10.19285 -10.18722 -10.18219
 Alpha  occ. eigenvalues --  -10.18113  -0.85412  -0.75787  -0.72889  -0.60420
 Alpha  occ. eigenvalues --   -0.59107  -0.51522  -0.45530  -0.44207  -0.43143
 Alpha  occ. eigenvalues --   -0.39116  -0.36708  -0.34210  -0.32168  -0.26018
 Alpha  occ. eigenvalues --   -0.23730
 Alpha virt. eigenvalues --   -0.00697   0.00322   0.07541   0.12812   0.13190
 Alpha virt. eigenvalues --    0.14937   0.16478   0.18799   0.20169   0.27432
 Alpha virt. eigenvalues --    0.29706   0.32530   0.33865   0.45382   0.52148

 Mulliken charges:
               1
     1  C   -0.108376
     2  C   -0.064047
     3  C   -0.085658
     4  C   -0.084772
     5  C   -0.103993
     6  C   -0.050314
     7  H    0.063135
     8  H    0.097459
     9  H    0.075059
    10  H    0.085596
    11  H    0.086907
    12  H    0.089003
 Sum of Mulliken charges =  -0.00000

 Dipole moment (field-independent basis, Debye):
    X=             -0.1124    Y=              0.0099    Z=              0.1101  Tot=              0.1577
 Quadrupole moment (field-independent basis, Debye-Ang):
   XX=            -30.8832   YY=            -33.1289   ZZ=            -38.4517
   XY=             -0.6829   XZ=              0.9404   YZ=              0.0727

 Normal termination of Gaussian 16 at Fri Nov 10 17:21:31 2023.
