 Gaussian 16, Revision B.01,
 Gaussian 16:  EM64L-G16RevB.01 20-Dec-2017

 ---------------------------------
 # TD=(NStates=1) B3LYP/6-31G(d,p)
 ---------------------------------

 -------
 ABSSPCT
 -------
 Symbolic Z-matrix:
 Charge =  0 Multiplicity = 1

                         Standard orientation:
 ---------------------------------------------------------------------
 Center     Atomic      Atomic             Coordinates (Angstroms)
 Number     Number       Type             X           Y           Z
 ---------------------------------------------------------------------
      1          6           0       -0.792839   -1.136183   -0.065519
      2          6           0       -1.491261    0.029251    0.084068
      3          6           0       -0.636675    1.201496   -0.020059
      4          6           0        0.750029    1.170513   -0.029338
      5          6           0        1.474820   -0.018945    0.037381
      6          6           0        0.710376   -1.192252   -0.039898
      7          1           0       -1.350811   -2.239370   -0.159620
      8          1           0        1.084851   -2.126773    0.220487
      9          1           0        2.697961   -0.423013    0.101941
     10          1           0        1.012782    2.164455   -0.046544
     11          1           0       -0.907399    2.154732   -0.074142
     12          1           0       -2.624083    0.146692    0.158068
 ---------------------------------------------------------------------

 SCF Done:  E(RB3LYP) =  -232.171913080     A.U. after   13 cycles

 Excitation energies and oscillator strengths:

 Excited State   1:      Singlet-A      5.2827 eV  234.70 nm  f=0.0038  <S**2>=0.000
      20 -> 22         0.42011
      20 -> 23        -0.14968
      21 -> 22         0.24200
      21 -> 23         0.49204
 This state for optimization and/or second-order correction.
 Total Energy, E(TD-HF/TD-DFT) =  -231.977776294
 Copying the excited state density for this state as the 1-particle RhoCI density.

 The electronic state is 1-A.
 Alpha  occ. eigenvalues --  -10.21375 -10.21059 -10.20369 -10.19240 -10.18631
 Alpha  occ. eigenvalues --  -10.18393  -0.84330  -0.74310  -0.73916  -0.60414
 Alpha  occ. eigenvalues --   -0.58717  -0.50933  -0.45748  -0.44079  -0.41060
 Alpha  occ. eigenvalues --   -0.39477  -0.35895  -0.34957  -0.31547  -0.25592
 Alpha  occ. eigenvalues --   -0.23652
 Alpha virt. eigenvalues --   -0.01112   0.00037   0.06332   0.09513   0.13759
 Alpha virt. eigenvalues --    0.14364   0.14755   0.18367   0.21064   0.26741
 Alpha virt. eigenvalues --    0.28902   0.31100   0.31755   0.45742   0.49168

 Mulliken charges:
               1
     1  C   -0.097692
     2  C   -0.071660
     3  C   -0.080409
     4  C   -0.083455
     5  C   -0.079714
     6  C   -0.086332
     7  H    0.069161
     8  H    0.094205
     9  H    0.083083
    10  H    0.080333
    11  H    0.074906
    12  H    0.097575
 Sum of Mulliken charges =  -0.00000

 Dipole moment (field-independent basis, Debye):
    X=             -0.1849    Y=              0.1100    Z=              0.1517  Tot=              0.2633
 Quadrupole moment (field-independent basis, Debye-Ang):
   XX=            -32.2023   YY=            -31.4196   ZZ=            -38.8494
   XY=             -0.9323   XZ=              0.2066   YZ=             -0.4008

 Normal termination of Gaussian 16 at Fri Nov 10 18:45:40 2023.
