 Gaussian 16, Revision B.01,
 Gaussian 16:  EM64L-G16RevB.01 20-Dec-2017

 ---------------------------------
 # TD=(NStates=1) B3LYP/6-31G(d,p)
 ---------------------------------

 -------
 ABSSPCT
 -------
 Symbolic Z-matrix:
 Charge =  0 Multiplicity = 1

                         Standard orientation:
 ---------------------------------------------------------------------
 Center     Atomic      Atomic             Coordinates (Angstroms)
 Number     Number       Type             X           Y           Z
 ---------------------------------------------------------------------
      1          6           0       -1.425082   -0.131528    0.013025
      2          6           0       -0.597260   -1.228983   -0.018594
      3          6           0        0.770399   -1.122532   -0.032064
      4          6           0        1.469613    0.027842   -0.009452
      5          6           0        0.559072    1.237526   -0.022053
      6          6           0       -0.750493    1.141599   -0.037240
      7          1           0       -2.570171   -0.098193    0.109774
      8          1           0       -1.211973    2.100395   -0.146127
      9          1           0        0.905096    2.414944    0.362781
     10          1           0        2.634296    0.180831    0.081105
     11          1           0        1.301890   -1.986752    0.010455
     12          1           0       -1.216634   -2.154762    0.220287
 ---------------------------------------------------------------------

 SCF Done:  E(RB3LYP) =  -232.187070009     A.U. after   14 cycles

 Excitation energies and oscillator strengths:

 Excited State   1:      Singlet-A      5.4997 eV  225.44 nm  f=0.0040  <S**2>=0.000
      20 -> 22         0.52152
      21 -> 22        -0.17221
      21 -> 23         0.43508
 This state for optimization and/or second-order correction.
 Total Energy, E(TD-HF/TD-DFT) =  -231.984958568
 Copying the excited state density for this state as the 1-particle RhoCI density.

 The electronic state is 1-A.
 Alpha  occ. eigenvalues --  -10.20772 -10.20200 -10.19844 -10.19164 -10.18156
 Alpha  occ. eigenvalues --  -10.17917  -0.85330  -0.75451  -0.73354  -0.60451
 Alpha  occ. eigenvalues --   -0.58156  -0.51227  -0.44726  -0.44325  -0.42226
 Alpha  occ. eigenvalues --   -0.39333  -0.36832  -0.34548  -0.31023  -0.25621
 Alpha  occ. eigenvalues --   -0.24316
 Alpha virt. eigenvalues --   -0.01245   0.01075   0.06819   0.10868   0.12246
 Alpha virt. eigenvalues --    0.15644   0.16339   0.18431   0.18495   0.26119
 Alpha virt. eigenvalues --    0.30584   0.31161   0.33959   0.46324   0.50297

 Mulliken charges:
               1
     1  C   -0.092790
     2  C   -0.087063
     3  C   -0.069484
     4  C   -0.100993
     5  C   -0.098267
     6  C   -0.059461
     7  H    0.093503
     8  H    0.086037
     9  H    0.057668
    10  H    0.100701
    11  H    0.083342
    12  H    0.086809
 Sum of Mulliken charges =  -0.00000

 Dipole moment (field-independent basis, Debye):
    X=             -0.1095    Y=             -0.1201    Z=              0.3386  Tot=              0.3756
 Quadrupole moment (field-independent basis, Debye-Ang):
   XX=            -31.2762   YY=            -32.6632   ZZ=            -38.5355
   XY=             -0.4310   XZ=              0.0843   YZ=             -0.0216

 Normal termination of Gaussian 16 at Fri Nov 10 16:38:03 2023.
