 Gaussian 16, Revision B.01,
 Gaussian 16:  EM64L-G16RevB.01 20-Dec-2017

 ---------------------------------
 # TD=(NStates=1) B3LYP/6-31G(d,p)
 ---------------------------------

 -------
 ABSSPCT
 -------
 Symbolic Z-matrix:
 Charge =  0 Multiplicity = 1

                         Standard orientation:
 ---------------------------------------------------------------------
 Center     Atomic      Atomic             Coordinates (Angstroms)
 Number     Number       Type             X           Y           Z
 ---------------------------------------------------------------------
      1          6           0        0.476636    1.256186   -0.017562
      2          6           0       -0.903811    1.036873   -0.020008
      3          6           0       -1.358884   -0.258548   -0.034158
      4          6           0       -0.449499   -1.243190    0.056986
      5          6           0        0.894521   -1.006092    0.049927
      6          6           0        1.393662    0.251723   -0.010456
      7          1           0        0.772667    2.303064    0.208867
      8          1           0        2.442356    0.400742   -0.189766
      9          1           0        1.552224   -1.963453   -0.116449
     10          1           0       -0.867403   -2.153627   -0.045912
     11          1           0       -2.463187   -0.526042   -0.099111
     12          1           0       -1.752410    1.717606    0.093998
 ---------------------------------------------------------------------

 SCF Done:  E(RB3LYP) =  -232.221282477     A.U. after   12 cycles

 Excitation energies and oscillator strengths:

 Excited State   1:      Singlet-A      5.6914 eV  217.84 nm  f=0.0008  <S**2>=0.000
      20 -> 22        -0.46753
      20 -> 23        -0.11242
      21 -> 22        -0.14013
      21 -> 23         0.49856
 This state for optimization and/or second-order correction.
 Total Energy, E(TD-HF/TD-DFT) =  -232.012126334
 Copying the excited state density for this state as the 1-particle RhoCI density.

 The electronic state is 1-A.
 Alpha  occ. eigenvalues --  -10.18826 -10.18798 -10.18423 -10.18289 -10.18040
 Alpha  occ. eigenvalues --  -10.16678  -0.86444  -0.75606  -0.74111  -0.60544
 Alpha  occ. eigenvalues --   -0.59629  -0.52369  -0.45167  -0.44568  -0.42554
 Alpha  occ. eigenvalues --   -0.40872  -0.36843  -0.34150  -0.32592  -0.25486
 Alpha  occ. eigenvalues --   -0.24671
 Alpha virt. eigenvalues --    0.00327   0.00721   0.08346   0.12980   0.14222
 Alpha virt. eigenvalues --    0.16697   0.17478   0.18556   0.20947   0.30442
 Alpha virt. eigenvalues --    0.30639   0.33392   0.34224   0.45949   0.52153

 Mulliken charges:
               1
     1  C   -0.109981
     2  C   -0.077955
     3  C   -0.087959
     4  C   -0.050519
     5  C   -0.090032
     6  C   -0.070787
     7  H    0.081860
     8  H    0.092683
     9  H    0.074189
    10  H    0.072007
    11  H    0.080024
    12  H    0.086469
 Sum of Mulliken charges =  -0.00000

 Dipole moment (field-independent basis, Debye):
    X=             -0.1485    Y=             -0.1083    Z=             -0.0808  Tot=              0.2008
 Quadrupole moment (field-independent basis, Debye-Ang):
   XX=            -31.2166   YY=            -32.6720   ZZ=            -38.0717
   XY=              0.1505   XZ=             -0.3440   YZ=              0.7758

 Normal termination of Gaussian 16 at Fri Nov 10 16:36:01 2023.
