 Gaussian 16, Revision B.01,
 Gaussian 16:  EM64L-G16RevB.01 20-Dec-2017

 ---------------------------------
 # TD=(NStates=1) B3LYP/6-31G(d,p)
 ---------------------------------

 -------
 ABSSPCT
 -------
 Symbolic Z-matrix:
 Charge =  0 Multiplicity = 1

                         Standard orientation:
 ---------------------------------------------------------------------
 Center     Atomic      Atomic             Coordinates (Angstroms)
 Number     Number       Type             X           Y           Z
 ---------------------------------------------------------------------
      1          6           0       -0.159879   -1.347255    0.084541
      2          6           0       -1.298012   -0.547474   -0.121330
      3          6           0       -1.135703    0.816729    0.045541
      4          6           0        0.131066    1.288980   -0.039284
      5          6           0        1.330230    0.548943   -0.052439
      6          6           0        1.179590   -0.822506    0.004030
      7          1           0       -0.406223   -2.389362    0.063129
      8          1           0        1.910775   -1.507616    0.092623
      9          1           0        2.203370    1.095230   -0.010409
     10          1           0        0.389322    2.439782    0.143531
     11          1           0       -1.946611    1.594742    0.272504
     12          1           0       -2.434386   -0.857274   -0.087736
 ---------------------------------------------------------------------

 SCF Done:  E(RB3LYP) =  -232.211134548     A.U. after   13 cycles

 Excitation energies and oscillator strengths:

 Excited State   1:      Singlet-A      5.3949 eV  229.82 nm  f=0.0044  <S**2>=0.000
      20 -> 22         0.22999
      20 -> 23         0.38278
      21 -> 22         0.49898
      21 -> 23        -0.22619
 This state for optimization and/or second-order correction.
 Total Energy, E(TD-HF/TD-DFT) =  -232.012876800
 Copying the excited state density for this state as the 1-particle RhoCI density.

 The electronic state is 1-A.
 Alpha  occ. eigenvalues --  -10.19817 -10.19251 -10.18967 -10.18887 -10.18830
 Alpha  occ. eigenvalues --  -10.18568  -0.85141  -0.75026  -0.73381  -0.60581
 Alpha  occ. eigenvalues --   -0.59129  -0.51902  -0.45931  -0.43352  -0.42960
 Alpha  occ. eigenvalues --   -0.39796  -0.36310  -0.34218  -0.32472  -0.25191
 Alpha  occ. eigenvalues --   -0.24227
 Alpha virt. eigenvalues --   -0.00524   0.00195   0.07574   0.12777   0.14119
 Alpha virt. eigenvalues --    0.15112   0.17175   0.18226   0.19599   0.28248
 Alpha virt. eigenvalues --    0.30571   0.31378   0.33280   0.45621   0.50228

 Mulliken charges:
               1
     1  C   -0.104035
     2  C   -0.099802
     3  C   -0.070291
     4  C   -0.082052
     5  C   -0.062327
     6  C   -0.075298
     7  H    0.088151
     8  H    0.083848
     9  H    0.089113
    10  H    0.058561
    11  H    0.091079
    12  H    0.083053
 Sum of Mulliken charges =  -0.00000

 Dipole moment (field-independent basis, Debye):
    X=              0.0776    Y=             -0.0229    Z=              0.2692  Tot=              0.2811
 Quadrupole moment (field-independent basis, Debye-Ang):
   XX=            -31.2737   YY=            -32.3911   ZZ=            -38.4957
   XY=              0.0355   XZ=             -0.1101   YZ=              0.3942

 Normal termination of Gaussian 16 at Fri Nov 10 16:43:02 2023.
