 Gaussian 16, Revision B.01,
 Gaussian 16:  EM64L-G16RevB.01 20-Dec-2017

 ---------------------------------
 # TD=(NStates=1) B3LYP/6-31G(d,p)
 ---------------------------------

 -------
 ABSSPCT
 -------
 Symbolic Z-matrix:
 Charge =  0 Multiplicity = 1

                         Standard orientation:
 ---------------------------------------------------------------------
 Center     Atomic      Atomic             Coordinates (Angstroms)
 Number     Number       Type             X           Y           Z
 ---------------------------------------------------------------------
      1          6           0        1.200188   -0.728718    0.047826
      2          6           0        1.244236    0.591668   -0.009668
      3          6           0        0.023853    1.390144   -0.042574
      4          6           0       -1.131393    0.727969    0.047138
      5          6           0       -1.217062   -0.656240    0.011151
      6          6           0       -0.091949   -1.356911   -0.069591
      7          1           0        2.109547   -1.218620    0.102626
      8          1           0       -0.183562   -2.426518    0.054918
      9          1           0       -2.314410   -1.015807   -0.133461
     10          1           0       -2.075859    1.357978    0.186326
     11          1           0        0.039137    2.373663   -0.103895
     12          1           0        2.257903    1.121829   -0.012203
 ---------------------------------------------------------------------

 SCF Done:  E(RB3LYP) =  -232.217547693     A.U. after   12 cycles

 Excitation energies and oscillator strengths:

 Excited State   1:      Singlet-A      5.7270 eV  216.49 nm  f=0.0002  <S**2>=0.000
      20 -> 22         0.51014
      21 -> 23        -0.48842
 This state for optimization and/or second-order correction.
 Total Energy, E(TD-HF/TD-DFT) =  -232.007084764
 Copying the excited state density for this state as the 1-particle RhoCI density.

 The electronic state is 1-A.
 Alpha  occ. eigenvalues --  -10.18904 -10.18699 -10.18545 -10.18248 -10.17981
 Alpha  occ. eigenvalues --  -10.17507  -0.85792  -0.75108  -0.74431  -0.60951
 Alpha  occ. eigenvalues --   -0.58639  -0.52383  -0.45531  -0.44452  -0.42265
 Alpha  occ. eigenvalues --   -0.41124  -0.36882  -0.33706  -0.32810  -0.25477
 Alpha  occ. eigenvalues --   -0.24695
 Alpha virt. eigenvalues --    0.00009   0.01166   0.08284   0.12838   0.15058
 Alpha virt. eigenvalues --    0.16771   0.17361   0.18895   0.19831   0.28875
 Alpha virt. eigenvalues --    0.29917   0.33338   0.34054   0.45360   0.51351

 Mulliken charges:
               1
     1  C   -0.064070
     2  C   -0.097679
     3  C   -0.049942
     4  C   -0.087519
     5  C   -0.065801
     6  C   -0.111525
     7  H    0.084517
     8  H    0.083007
     9  H    0.086118
    10  H    0.072943
    11  H    0.073379
    12  H    0.076573
 Sum of Mulliken charges =  -0.00000

 Dipole moment (field-independent basis, Debye):
    X=              0.0503    Y=              0.1201    Z=              0.0451  Tot=              0.1378
 Quadrupole moment (field-independent basis, Debye-Ang):
   XX=            -31.4396   YY=            -32.0952   ZZ=            -38.1894
   XY=             -0.1708   XZ=              0.1254   YZ=             -0.1845

 Normal termination of Gaussian 16 at Fri Nov 10 18:32:26 2023.
