 Gaussian 16, Revision B.01,
 Gaussian 16:  EM64L-G16RevB.01 20-Dec-2017

 ---------------------------------
 # TD=(NStates=1) B3LYP/6-31G(d,p)
 ---------------------------------

 -------
 ABSSPCT
 -------
 Symbolic Z-matrix:
 Charge =  0 Multiplicity = 1

                         Standard orientation:
 ---------------------------------------------------------------------
 Center     Atomic      Atomic             Coordinates (Angstroms)
 Number     Number       Type             X           Y           Z
 ---------------------------------------------------------------------
      1          6           0       -0.164919    1.337303    0.014301
      2          6           0       -1.375016    0.498924   -0.021037
      3          6           0       -1.100880   -0.858369    0.003748
      4          6           0        0.214382   -1.280029    0.016564
      5          6           0        1.333250   -0.509967    0.034890
      6          6           0        1.102917    0.852165   -0.066065
      7          1           0       -0.227372    2.463704    0.252093
      8          1           0        1.904635    1.508077    0.009694
      9          1           0        2.179054   -1.102278   -0.132027
     10          1           0        0.408287   -2.471242    0.106533
     11          1           0       -1.994908   -1.594048   -0.057351
     12          1           0       -2.328099    0.955619   -0.073350
 ---------------------------------------------------------------------

 SCF Done:  E(RB3LYP) =  -232.217719972     A.U. after   13 cycles

 Excitation energies and oscillator strengths:

 Excited State   1:      Singlet-A      5.4837 eV  226.10 nm  f=0.0075  <S**2>=0.000
      20 -> 22        -0.37453
      20 -> 23        -0.26545
      21 -> 22         0.41103
      21 -> 23        -0.34599
 This state for optimization and/or second-order correction.
 Total Energy, E(TD-HF/TD-DFT) =  -232.016197884
 Copying the excited state density for this state as the 1-particle RhoCI density.

 The electronic state is 1-A.
 Alpha  occ. eigenvalues --  -10.19642 -10.19559 -10.19538 -10.19115 -10.18136
 Alpha  occ. eigenvalues --  -10.18067  -0.85427  -0.75065  -0.73598  -0.60855
 Alpha  occ. eigenvalues --   -0.58564  -0.51772  -0.46308  -0.43678  -0.42620
 Alpha  occ. eigenvalues --   -0.39408  -0.36774  -0.34623  -0.31941  -0.25540
 Alpha  occ. eigenvalues --   -0.24328
 Alpha virt. eigenvalues --   -0.00811   0.00768   0.07728   0.12734   0.14040
 Alpha virt. eigenvalues --    0.16058   0.17252   0.18093   0.18986   0.27971
 Alpha virt. eigenvalues --    0.30775   0.30982   0.33730   0.46218   0.51138

 Mulliken charges:
               1
     1  C   -0.098994
     2  C   -0.086039
     3  C   -0.078422
     4  C   -0.086941
     5  C   -0.060997
     6  C   -0.083275
     7  H    0.078014
     8  H    0.083859
     9  H    0.092279
    10  H    0.060345
    11  H    0.084459
    12  H    0.095711
 Sum of Mulliken charges =  -0.00000

 Dipole moment (field-independent basis, Debye):
    X=             -0.0420    Y=              0.0639    Z=              0.0301  Tot=              0.0821
 Quadrupole moment (field-independent basis, Debye-Ang):
   XX=            -31.2879   YY=            -32.4499   ZZ=            -38.4632
   XY=             -0.2642   XZ=             -0.0019   YZ=              0.4774

 Normal termination of Gaussian 16 at Fri Nov 10 17:38:06 2023.
