 Gaussian 16, Revision B.01,
 Gaussian 16:  EM64L-G16RevB.01 20-Dec-2017

 ---------------------------------
 # TD=(NStates=1) B3LYP/6-31G(d,p)
 ---------------------------------

 -------
 ABSSPCT
 -------
 Symbolic Z-matrix:
 Charge =  0 Multiplicity = 1

                         Standard orientation:
 ---------------------------------------------------------------------
 Center     Atomic      Atomic             Coordinates (Angstroms)
 Number     Number       Type             X           Y           Z
 ---------------------------------------------------------------------
      1          6           0       -0.084913    1.344246    0.005847
      2          6           0        1.186919    0.801220   -0.006434
      3          6           0        1.243434   -0.651338   -0.024664
      4          6           0        0.101066   -1.371611   -0.016140
      5          6           0       -1.220588   -0.766435    0.034568
      6          6           0       -1.272961    0.601129   -0.043291
      7          1           0       -0.274812    2.360612    0.205402
      8          1           0       -2.107601    1.213430    0.004466
      9          1           0       -1.953450   -1.485689   -0.026140
     10          1           0        0.347866   -2.345997    0.060251
     11          1           0        2.272134   -0.946666    0.166537
     12          1           0        1.998114    1.461041   -0.109831
 ---------------------------------------------------------------------

 SCF Done:  E(RB3LYP) =  -232.216539975     A.U. after   13 cycles

 Excitation energies and oscillator strengths:

 Excited State   1:      Singlet-A      5.3992 eV  229.63 nm  f=0.0032  <S**2>=0.000
      20 -> 22         0.46687
      20 -> 23        -0.20174
      21 -> 22        -0.28586
      21 -> 23        -0.39891
 This state for optimization and/or second-order correction.
 Total Energy, E(TD-HF/TD-DFT) =  -232.018121949
 Copying the excited state density for this state as the 1-particle RhoCI density.

 The electronic state is 1-A.
 Alpha  occ. eigenvalues --  -10.19033 -10.18556 -10.18420 -10.18239 -10.17856
 Alpha  occ. eigenvalues --  -10.17764  -0.84584  -0.74866  -0.73913  -0.61601
 Alpha  occ. eigenvalues --   -0.59332  -0.52450  -0.47679  -0.43204  -0.42478
 Alpha  occ. eigenvalues --   -0.41366  -0.36292  -0.33842  -0.32897  -0.24875
 Alpha  occ. eigenvalues --   -0.24210
 Alpha virt. eigenvalues --   -0.00804   0.00751   0.10516   0.14268   0.15216
 Alpha virt. eigenvalues --    0.16389   0.17629   0.18896   0.20818   0.28333
 Alpha virt. eigenvalues --    0.29104   0.32476   0.32604   0.46241   0.51280

 Mulliken charges:
               1
     1  C   -0.079147
     2  C   -0.090944
     3  C   -0.090200
     4  C   -0.090818
     5  C   -0.076187
     6  C   -0.076795
     7  H    0.075827
     8  H    0.082449
     9  H    0.088231
    10  H    0.081261
    11  H    0.088470
    12  H    0.087852
 Sum of Mulliken charges =  -0.00000

 Dipole moment (field-independent basis, Debye):
    X=              0.0473    Y=              0.0780    Z=              0.1827  Tot=              0.2042
 Quadrupole moment (field-independent basis, Debye-Ang):
   XX=            -31.5169   YY=            -31.5226   ZZ=            -38.2066
   XY=             -0.0432   XZ=              0.1407   YZ=              0.0439

 Normal termination of Gaussian 16 at Fri Nov 10 17:39:40 2023.
