 Gaussian 16, Revision B.01,
 Gaussian 16:  EM64L-G16RevB.01 20-Dec-2017

 ---------------------------------
 # TD=(NStates=1) B3LYP/6-31G(d,p)
 ---------------------------------

 -------
 ABSSPCT
 -------
 Symbolic Z-matrix:
 Charge =  0 Multiplicity = 1

                         Standard orientation:
 ---------------------------------------------------------------------
 Center     Atomic      Atomic             Coordinates (Angstroms)
 Number     Number       Type             X           Y           Z
 ---------------------------------------------------------------------
      1          6           0        0.018156    1.408061   -0.059203
      2          6           0        1.255877    0.674094   -0.066950
      3          6           0        1.250778   -0.719073    0.035289
      4          6           0        0.011924   -1.378737   -0.037707
      5          6           0       -1.235635   -0.678661    0.022545
      6          6           0       -1.272866    0.688670    0.069785
      7          1           0        0.041133    2.388294    0.186500
      8          1           0       -2.030493    1.298100    0.062739
      9          1           0       -2.357382   -1.209633   -0.221377
     10          1           0       -0.073513   -2.418240   -0.069115
     11          1           0        2.105889   -1.312921    0.338431
     12          1           0        2.144962    1.288273   -0.079732
 ---------------------------------------------------------------------

 SCF Done:  E(RB3LYP) =  -232.201770741     A.U. after   12 cycles

 Excitation energies and oscillator strengths:

 Excited State   1:      Singlet-A      5.1419 eV  241.12 nm  f=0.0005  <S**2>=0.000
      20 -> 22        -0.47248
      21 -> 23         0.52483
 This state for optimization and/or second-order correction.
 Total Energy, E(TD-HF/TD-DFT) =  -232.012808287
 Copying the excited state density for this state as the 1-particle RhoCI density.

 The electronic state is 1-A.
 Alpha  occ. eigenvalues --  -10.20517 -10.19523 -10.19463 -10.19056 -10.18811
 Alpha  occ. eigenvalues --  -10.18231  -0.83822  -0.74486  -0.73170  -0.60699
 Alpha  occ. eigenvalues --   -0.59429  -0.51470  -0.47442  -0.43565  -0.41794
 Alpha  occ. eigenvalues --   -0.40425  -0.35743  -0.35424  -0.31781  -0.25105
 Alpha  occ. eigenvalues --   -0.23530
 Alpha virt. eigenvalues --   -0.01390  -0.00252   0.08623   0.11737   0.14763
 Alpha virt. eigenvalues --    0.15994   0.17336   0.18013   0.20393   0.27263
 Alpha virt. eigenvalues --    0.29549   0.30191   0.32101   0.46989   0.50877

 Mulliken charges:
               1
     1  C   -0.100048
     2  C   -0.094890
     3  C   -0.076537
     4  C   -0.094758
     5  C   -0.080981
     6  C   -0.059709
     7  H    0.086737
     8  H    0.079682
     9  H    0.067333
    10  H    0.088616
    11  H    0.095966
    12  H    0.088590
 Sum of Mulliken charges =  -0.00000

 Dipole moment (field-independent basis, Debye):
    X=              0.1277    Y=              0.1449    Z=              0.1856  Tot=              0.2679
 Quadrupole moment (field-independent basis, Debye-Ang):
   XX=            -31.7720   YY=            -31.5040   ZZ=            -38.5090
   XY=             -0.4127   XZ=              0.7430   YZ=              0.3443

 Normal termination of Gaussian 16 at Fri Nov 10 16:55:46 2023.
