 Gaussian 16, Revision B.01,
 Gaussian 16:  EM64L-G16RevB.01 20-Dec-2017

 ---------------------------------
 # TD=(NStates=1) B3LYP/6-31G(d,p)
 ---------------------------------

 -------
 ABSSPCT
 -------
 Symbolic Z-matrix:
 Charge =  0 Multiplicity = 1

                         Standard orientation:
 ---------------------------------------------------------------------
 Center     Atomic      Atomic             Coordinates (Angstroms)
 Number     Number       Type             X           Y           Z
 ---------------------------------------------------------------------
      1          6           0       -0.810004    1.144521   -0.010811
      2          6           0        0.573771    1.264007    0.039614
      3          6           0        1.386356    0.135409   -0.051545
      4          6           0        0.830537   -1.154956   -0.008892
      5          6           0       -0.536527   -1.218492   -0.032381
      6          6           0       -1.432773   -0.156351   -0.001145
      7          1           0       -1.580819    1.946875   -0.028942
      8          1           0       -2.552594   -0.308660    0.040223
      9          1           0       -1.036509   -2.213478    0.093742
     10          1           0        1.384121   -2.025516    0.219963
     11          1           0        2.516768    0.266767   -0.045235
     12          1           0        1.200878    2.249182    0.111203
 ---------------------------------------------------------------------

 SCF Done:  E(RB3LYP) =  -232.232792130     A.U. after   13 cycles

 Excitation energies and oscillator strengths:

 Excited State   1:      Singlet-A      5.4503 eV  227.48 nm  f=0.0014  <S**2>=0.000
      20 -> 22         0.53008
      21 -> 23        -0.46707
 This state for optimization and/or second-order correction.
 Total Energy, E(TD-HF/TD-DFT) =  -232.032497118
 Copying the excited state density for this state as the 1-particle RhoCI density.

 The electronic state is 1-A.
 Alpha  occ. eigenvalues --  -10.19893 -10.19799 -10.19625 -10.19519 -10.18592
 Alpha  occ. eigenvalues --  -10.18520  -0.84813  -0.74056  -0.73783  -0.60135
 Alpha  occ. eigenvalues --   -0.58654  -0.51298  -0.45192  -0.44332  -0.41606
 Alpha  occ. eigenvalues --   -0.40347  -0.36187  -0.34921  -0.31880  -0.25016
 Alpha  occ. eigenvalues --   -0.24406
 Alpha virt. eigenvalues --   -0.00779   0.00738   0.07496   0.12656   0.13866
 Alpha virt. eigenvalues --    0.15372   0.16172   0.17978   0.19279   0.28053
 Alpha virt. eigenvalues --    0.29554   0.31686   0.33591   0.45947   0.50854

 Mulliken charges:
               1
     1  C   -0.104882
     2  C   -0.070157
     3  C   -0.103036
     4  C   -0.064564
     5  C   -0.088645
     6  C   -0.082847
     7  H    0.086560
     8  H    0.096207
     9  H    0.069224
    10  H    0.093596
    11  H    0.083347
    12  H    0.085196
 Sum of Mulliken charges =  -0.00000

 Dipole moment (field-independent basis, Debye):
    X=             -0.0355    Y=             -0.0796    Z=              0.2345  Tot=              0.2502
 Quadrupole moment (field-independent basis, Debye-Ang):
   XX=            -30.8792   YY=            -32.6085   ZZ=            -38.6865
   XY=             -0.0308   XZ=              0.1651   YZ=             -0.4227

 Normal termination of Gaussian 16 at Fri Nov 10 17:13:43 2023.
