 Gaussian 16, Revision B.01,
 Gaussian 16:  EM64L-G16RevB.01 20-Dec-2017

 ---------------------------------
 # TD=(NStates=1) B3LYP/6-31G(d,p)
 ---------------------------------

 -------
 ABSSPCT
 -------
 Symbolic Z-matrix:
 Charge =  0 Multiplicity = 1

                         Standard orientation:
 ---------------------------------------------------------------------
 Center     Atomic      Atomic             Coordinates (Angstroms)
 Number     Number       Type             X           Y           Z
 ---------------------------------------------------------------------
      1          6           0       -0.986011   -1.030572   -0.045214
      2          6           0       -1.337566    0.265780   -0.020821
      3          6           0       -0.478020    1.369866   -0.003895
      4          6           0        0.937821    1.030482   -0.051429
      5          6           0        1.439377   -0.253736   -0.014754
      6          6           0        0.439140   -1.342245    0.029750
      7          1           0       -1.713975   -1.898418    0.091666
      8          1           0        0.781293   -2.312129    0.099565
      9          1           0        2.402896   -0.634584    0.006288
     10          1           0        1.775697    1.834120    0.194603
     11          1           0       -0.983229    2.365745    0.138770
     12          1           0       -2.351132    0.407817    0.107283
 ---------------------------------------------------------------------

 SCF Done:  E(RB3LYP) =  -232.212903562     A.U. after   13 cycles

 Excitation energies and oscillator strengths:

 Excited State   1:      Singlet-A      5.2800 eV  234.82 nm  f=0.0003  <S**2>=0.000
      20 -> 22         0.51715
      21 -> 23         0.48080
 This state for optimization and/or second-order correction.
 Total Energy, E(TD-HF/TD-DFT) =  -232.018867389
 Copying the excited state density for this state as the 1-particle RhoCI density.

 The electronic state is 1-A.
 Alpha  occ. eigenvalues --  -10.20656 -10.20276 -10.19343 -10.19303 -10.19180
 Alpha  occ. eigenvalues --  -10.17848  -0.83927  -0.74795  -0.72587  -0.60642
 Alpha  occ. eigenvalues --   -0.58952  -0.50960  -0.46636  -0.44204  -0.41366
 Alpha  occ. eigenvalues --   -0.40544  -0.35601  -0.34957  -0.31759  -0.25353
 Alpha  occ. eigenvalues --   -0.23548
 Alpha virt. eigenvalues --   -0.01586   0.00678   0.08522   0.12610   0.14164
 Alpha virt. eigenvalues --    0.14973   0.15699   0.18926   0.20005   0.26716
 Alpha virt. eigenvalues --    0.28419   0.30433   0.33037   0.45964   0.48722

 Mulliken charges:
               1
     1  C   -0.077535
     2  C   -0.072985
     3  C   -0.083407
     4  C   -0.117303
     5  C   -0.055927
     6  C   -0.107239
     7  H    0.087498
     8  H    0.081458
     9  H    0.093467
    10  H    0.073626
    11  H    0.099901
    12  H    0.078447
 Sum of Mulliken charges =  -0.00000

 Dipole moment (field-independent basis, Debye):
    X=             -0.0808    Y=             -0.2405    Z=              0.3839  Tot=              0.4602
 Quadrupole moment (field-independent basis, Debye-Ang):
   XX=            -31.2935   YY=            -31.8152   ZZ=            -38.7249
   XY=             -0.8722   XZ=             -0.1133   YZ=              0.2304

 Normal termination of Gaussian 16 at Fri Nov 10 16:01:04 2023.
