 Gaussian 16, Revision B.01,
 Gaussian 16:  EM64L-G16RevB.01 20-Dec-2017

 ---------------------------------
 # TD=(NStates=1) B3LYP/6-31G(d,p)
 ---------------------------------

 -------
 ABSSPCT
 -------
 Symbolic Z-matrix:
 Charge =  0 Multiplicity = 1

                         Standard orientation:
 ---------------------------------------------------------------------
 Center     Atomic      Atomic             Coordinates (Angstroms)
 Number     Number       Type             X           Y           Z
 ---------------------------------------------------------------------
      1          6           0        0.757821   -1.173001   -0.059738
      2          6           0       -0.631715   -1.223045   -0.022440
      3          6           0       -1.409756   -0.119886   -0.013280
      4          6           0       -0.844883    1.158789    0.046604
      5          6           0        0.669733    1.237002    0.003782
      6          6           0        1.451750    0.066348    0.025598
      7          1           0        1.360881   -2.054106    0.036136
      8          1           0        2.517255    0.133608    0.058853
      9          1           0        1.223570    2.175450   -0.093218
     10          1           0       -1.366148    2.207366   -0.054928
     11          1           0       -2.424920   -0.093810   -0.112077
     12          1           0       -1.268339   -2.045755    0.282073
 ---------------------------------------------------------------------

 SCF Done:  E(RB3LYP) =  -232.217452026     A.U. after   14 cycles

 Excitation energies and oscillator strengths:

 Excited State   1:      Singlet-A      5.2185 eV  237.59 nm  f=0.0016  <S**2>=0.000
      20 -> 22         0.49022
      21 -> 22         0.18018
      21 -> 23        -0.46594
 This state for optimization and/or second-order correction.
 Total Energy, E(TD-HF/TD-DFT) =  -232.025676997
 Copying the excited state density for this state as the 1-particle RhoCI density.

 The electronic state is 1-A.
 Alpha  occ. eigenvalues --  -10.20624 -10.19797 -10.19187 -10.19129 -10.18417
 Alpha  occ. eigenvalues --  -10.17973  -0.84223  -0.74990  -0.72479  -0.60415
 Alpha  occ. eigenvalues --   -0.59172  -0.51343  -0.46756  -0.43579  -0.42370
 Alpha  occ. eigenvalues --   -0.40466  -0.35484  -0.33808  -0.33222  -0.25011
 Alpha  occ. eigenvalues --   -0.23613
 Alpha virt. eigenvalues --   -0.01302   0.00319   0.09113   0.13206   0.14312
 Alpha virt. eigenvalues --    0.15193   0.16765   0.18756   0.18875   0.27087
 Alpha virt. eigenvalues --    0.29846   0.30919   0.31679   0.46343   0.51349

 Mulliken charges:
               1
     1  C   -0.099445
     2  C   -0.075660
     3  C   -0.078149
     4  C   -0.096540
     5  C   -0.105415
     6  C   -0.072252
     7  H    0.085535
     8  H    0.090401
     9  H    0.084749
    10  H    0.087900
    11  H    0.088140
    12  H    0.090736
 Sum of Mulliken charges =  -0.00000

 Dipole moment (field-independent basis, Debye):
    X=              0.0416    Y=              0.0801    Z=              0.0694  Tot=              0.1139
 Quadrupole moment (field-independent basis, Debye-Ang):
   XX=            -30.8354   YY=            -32.3059   ZZ=            -38.5953
   XY=              0.0711   XZ=              0.0449   YZ=             -0.8187

 Normal termination of Gaussian 16 at Fri Nov 10 18:43:51 2023.
