 Gaussian 16, Revision B.01,
 Gaussian 16:  EM64L-G16RevB.01 20-Dec-2017

 ---------------------------------
 # TD=(NStates=1) B3LYP/6-31G(d,p)
 ---------------------------------

 -------
 ABSSPCT
 -------
 Symbolic Z-matrix:
 Charge =  0 Multiplicity = 1

                         Standard orientation:
 ---------------------------------------------------------------------
 Center     Atomic      Atomic             Coordinates (Angstroms)
 Number     Number       Type             X           Y           Z
 ---------------------------------------------------------------------
      1          6           0        0.777737   -1.152490   -0.073652
      2          6           0       -0.669839   -1.234254   -0.035038
      3          6           0       -1.375116   -0.044196    0.053958
      4          6           0       -0.736818    1.187147    0.004676
      5          6           0        0.677723    1.215372   -0.017140
      6          6           0        1.406939    0.062469   -0.010689
      7          1           0        1.237257   -2.069450    0.383456
      8          1           0        2.484673   -0.087763    0.084985
      9          1           0        1.070244    2.103629    0.085477
     10          1           0       -1.401847    2.162016   -0.079818
     11          1           0       -2.498246   -0.185008    0.062047
     12          1           0       -1.375835   -2.127712   -0.068837
 ---------------------------------------------------------------------

 SCF Done:  E(RB3LYP) =  -232.210955278     A.U. after   12 cycles

 Excitation energies and oscillator strengths:

 Excited State   1:      Singlet-A      5.3752 eV  230.66 nm  f=0.0002  <S**2>=0.000
      20 -> 22         0.50160
      21 -> 23        -0.49474
 This state for optimization and/or second-order correction.
 Total Energy, E(TD-HF/TD-DFT) =  -232.013422092
 Copying the excited state density for this state as the 1-particle RhoCI density.

 The electronic state is 1-A.
 Alpha  occ. eigenvalues --  -10.20041 -10.19493 -10.19120 -10.18825 -10.18804
 Alpha  occ. eigenvalues --  -10.18097  -0.85043  -0.74860  -0.73596  -0.60618
 Alpha  occ. eigenvalues --   -0.58902  -0.51701  -0.45335  -0.43992  -0.41964
 Alpha  occ. eigenvalues --   -0.40662  -0.36033  -0.34129  -0.32665  -0.25547
 Alpha  occ. eigenvalues --   -0.23866
 Alpha virt. eigenvalues --   -0.01340   0.00688   0.07846   0.12823   0.13073
 Alpha virt. eigenvalues --    0.15080   0.18207   0.18355   0.18791   0.28300
 Alpha virt. eigenvalues --    0.30167   0.31483   0.32864   0.46357   0.50964

 Mulliken charges:
               1
     1  C   -0.118877
     2  C   -0.089688
     3  C   -0.070212
     4  C   -0.096197
     5  C   -0.068777
     6  C   -0.069302
     7  H    0.090806
     8  H    0.092893
     9  H    0.076906
    10  H    0.086530
    11  H    0.077612
    12  H    0.088306
 Sum of Mulliken charges =  -0.00000

 Dipole moment (field-independent basis, Debye):
    X=             -0.1050    Y=              0.1109    Z=              0.2875  Tot=              0.3255
 Quadrupole moment (field-independent basis, Debye-Ang):
   XX=            -31.6691   YY=            -32.1935   ZZ=            -38.4208
   XY=              0.2906   XZ=              0.7009   YZ=             -0.5676

 Normal termination of Gaussian 16 at Fri Nov 10 16:48:33 2023.
