 Gaussian 16, Revision B.01,
 Gaussian 16:  EM64L-G16RevB.01 20-Dec-2017

 ---------------------------------
 # TD=(NStates=1) B3LYP/6-31G(d,p)
 ---------------------------------

 -------
 ABSSPCT
 -------
 Symbolic Z-matrix:
 Charge =  0 Multiplicity = 1

                         Standard orientation:
 ---------------------------------------------------------------------
 Center     Atomic      Atomic             Coordinates (Angstroms)
 Number     Number       Type             X           Y           Z
 ---------------------------------------------------------------------
      1          6           0        0.806781    1.159553   -0.002454
      2          6           0        1.430303   -0.080272    0.020274
      3          6           0        0.602579   -1.240375   -0.052098
      4          6           0       -0.793714   -1.137659    0.002233
      5          6           0       -1.421299    0.070550   -0.057194
      6          6           0       -0.665126    1.208389    0.065636
      7          1           0        1.310748    2.124047   -0.103070
      8          1           0       -1.053036    2.374812   -0.118272
      9          1           0       -2.401483    0.056943    0.084264
     10          1           0       -1.520906   -1.976125    0.190627
     11          1           0        1.264978   -2.117680   -0.058948
     12          1           0        2.642550   -0.343118    0.147015
 ---------------------------------------------------------------------

 SCF Done:  E(RB3LYP) =  -232.197538968     A.U. after   13 cycles

 Excitation energies and oscillator strengths:

 Excited State   1:      Singlet-A      5.3351 eV  232.39 nm  f=0.0013  <S**2>=0.000
      20 -> 22        -0.47296
      21 -> 22        -0.13781
      21 -> 23         0.50109
 This state for optimization and/or second-order correction.
 Total Energy, E(TD-HF/TD-DFT) =  -232.001478433
 Copying the excited state density for this state as the 1-particle RhoCI density.

 The electronic state is 1-A.
 Alpha  occ. eigenvalues --  -10.20784 -10.20711 -10.19795 -10.19548 -10.19413
 Alpha  occ. eigenvalues --  -10.17764  -0.84837  -0.75129  -0.72788  -0.59980
 Alpha  occ. eigenvalues --   -0.59063  -0.51675  -0.44666  -0.43707  -0.42181
 Alpha  occ. eigenvalues --   -0.39999  -0.36321  -0.33591  -0.32604  -0.25508
 Alpha  occ. eigenvalues --   -0.24011
 Alpha virt. eigenvalues --   -0.01074   0.00049   0.06623   0.10677   0.12741
 Alpha virt. eigenvalues --    0.14892   0.17110   0.17284   0.19953   0.26836
 Alpha virt. eigenvalues --    0.29489   0.32417   0.32654   0.46337   0.50143

 Mulliken charges:
               1
     1  C   -0.096947
     2  C   -0.079239
     3  C   -0.083110
     4  C   -0.088851
     5  C   -0.056064
     6  C   -0.094701
     7  H    0.091981
     8  H    0.068614
     9  H    0.084197
    10  H    0.086722
    11  H    0.087666
    12  H    0.079731
 Sum of Mulliken charges =  -0.00000

 Dipole moment (field-independent basis, Debye):
    X=             -0.0027    Y=             -0.1050    Z=              0.0770  Tot=              0.1302
 Quadrupole moment (field-independent basis, Debye-Ang):
   XX=            -31.4124   YY=            -32.4438   ZZ=            -38.7611
   XY=              0.0946   XZ=             -0.2158   YZ=             -0.6694

 Normal termination of Gaussian 16 at Fri Nov 10 16:46:05 2023.
