 Gaussian 16, Revision B.01,
 Gaussian 16:  EM64L-G16RevB.01 20-Dec-2017

 ---------------------------------
 # TD=(NStates=1) B3LYP/6-31G(d,p)
 ---------------------------------

 -------
 ABSSPCT
 -------
 Symbolic Z-matrix:
 Charge =  0 Multiplicity = 1

                         Standard orientation:
 ---------------------------------------------------------------------
 Center     Atomic      Atomic             Coordinates (Angstroms)
 Number     Number       Type             X           Y           Z
 ---------------------------------------------------------------------
      1          6           0        1.157643   -0.797345   -0.016074
      2          6           0        1.322084    0.639826    0.050253
      3          6           0        0.066051    1.396223    0.001921
      4          6           0       -1.189660    0.729993   -0.024193
      5          6           0       -1.242049   -0.646962   -0.010525
      6          6           0       -0.063481   -1.374112   -0.030574
      7          1           0        1.923190   -1.292413    0.018646
      8          1           0       -0.207238   -2.356678    0.140525
      9          1           0       -2.290188   -0.946638    0.119852
     10          1           0       -2.036246    1.420130   -0.034062
     11          1           0        0.035147    2.428602    0.086527
     12          1           0        2.271812    1.061258   -0.156337
 ---------------------------------------------------------------------

 SCF Done:  E(RB3LYP) =  -232.198330100     A.U. after   14 cycles

 Excitation energies and oscillator strengths:

 Excited State   1:      Singlet-A      5.3238 eV  232.89 nm  f=0.0009  <S**2>=0.000
      20 -> 22         0.52146
      21 -> 23        -0.46812
 This state for optimization and/or second-order correction.
 Total Energy, E(TD-HF/TD-DFT) =  -232.002684263
 Copying the excited state density for this state as the 1-particle RhoCI density.

 The electronic state is 1-A.
 Alpha  occ. eigenvalues --  -10.19506 -10.18866 -10.18593 -10.18471 -10.17563
 Alpha  occ. eigenvalues --  -10.17133  -0.84449  -0.74930  -0.73552  -0.60862
 Alpha  occ. eigenvalues --   -0.60466  -0.52515  -0.47461  -0.44140  -0.42017
 Alpha  occ. eigenvalues --   -0.41639  -0.35664  -0.34429  -0.33126  -0.24761
 Alpha  occ. eigenvalues --   -0.24074
 Alpha virt. eigenvalues --   -0.00967   0.00469   0.10341   0.14901   0.15529
 Alpha virt. eigenvalues --    0.15624   0.18022   0.19620   0.20540   0.29025
 Alpha virt. eigenvalues --    0.29085   0.30980   0.32585   0.46690   0.52285

 Mulliken charges:
               1
     1  C   -0.044710
     2  C   -0.105813
     3  C   -0.091476
     4  C   -0.077980
     5  C   -0.090109
     6  C   -0.070426
     7  H    0.055106
     8  H    0.079754
     9  H    0.089225
    10  H    0.083320
    11  H    0.079729
    12  H    0.093381
 Sum of Mulliken charges =  -0.00000

 Dipole moment (field-independent basis, Debye):
    X=             -0.0296    Y=              0.0337    Z=              0.0984  Tot=              0.1081
 Quadrupole moment (field-independent basis, Debye-Ang):
   XX=            -30.9621   YY=            -31.8282   ZZ=            -38.2314
   XY=             -0.3553   XZ=             -0.5056   YZ=             -0.3986

 Normal termination of Gaussian 16 at Fri Nov 10 17:22:19 2023.
