 Gaussian 16, Revision B.01,
 Gaussian 16:  EM64L-G16RevB.01 20-Dec-2017

 ---------------------------------
 # TD=(NStates=1) B3LYP/6-31G(d,p)
 ---------------------------------

 -------
 ABSSPCT
 -------
 Symbolic Z-matrix:
 Charge =  0 Multiplicity = 1

                         Standard orientation:
 ---------------------------------------------------------------------
 Center     Atomic      Atomic             Coordinates (Angstroms)
 Number     Number       Type             X           Y           Z
 ---------------------------------------------------------------------
      1          6           0        1.273699    0.476079    0.101022
      2          6           0        1.103184   -0.860853   -0.071652
      3          6           0       -0.204078   -1.298454   -0.006737
      4          6           0       -1.327940   -0.500922    0.047930
      5          6           0       -1.034966    0.841479   -0.038785
      6          6           0        0.241283    1.309144   -0.023841
      7          1           0        2.351709    0.929702    0.106283
      8          1           0        0.181983    2.432001   -0.094500
      9          1           0       -1.764074    1.633259   -0.034584
     10          1           0       -2.479008   -0.851855    0.035320
     11          1           0       -0.410757   -2.291704    0.102356
     12          1           0        1.813057   -1.650250   -0.162492
 ---------------------------------------------------------------------

 SCF Done:  E(RB3LYP) =  -232.212064954     A.U. after   13 cycles

 Excitation energies and oscillator strengths:

 Excited State   1:      Singlet-A      5.7185 eV  216.81 nm  f=0.0031  <S**2>=0.000
      20 -> 22         0.20329
      20 -> 23         0.40247
      21 -> 22         0.50610
      21 -> 23        -0.19969
 This state for optimization and/or second-order correction.
 Total Energy, E(TD-HF/TD-DFT) =  -232.001913994
 Copying the excited state density for this state as the 1-particle RhoCI density.

 The electronic state is 1-A.
 Alpha  occ. eigenvalues --  -10.19312 -10.18989 -10.18404 -10.17874 -10.17562
 Alpha  occ. eigenvalues --  -10.17537  -0.86649  -0.75048  -0.74714  -0.60622
 Alpha  occ. eigenvalues --   -0.59597  -0.51960  -0.45682  -0.44186  -0.41690
 Alpha  occ. eigenvalues --   -0.40782  -0.37272  -0.34024  -0.32442  -0.25400
 Alpha  occ. eigenvalues --   -0.24749
 Alpha virt. eigenvalues --    0.00327   0.01065   0.07551   0.11825   0.14128
 Alpha virt. eigenvalues --    0.16574   0.17232   0.19549   0.20403   0.29866
 Alpha virt. eigenvalues --    0.30940   0.33288   0.34799   0.45427   0.51727

 Mulliken charges:
               1
     1  C   -0.113922
     2  C   -0.055978
     3  C   -0.103282
     4  C   -0.074233
     5  C   -0.083409
     6  C   -0.050102
     7  H    0.072019
     8  H    0.083202
     9  H    0.073138
    10  H    0.085588
    11  H    0.075309
    12  H    0.091669
 Sum of Mulliken charges =  -0.00000

 Dipole moment (field-independent basis, Debye):
    X=             -0.0990    Y=             -0.0705    Z=             -0.0348  Tot=              0.1264
 Quadrupole moment (field-independent basis, Debye-Ang):
   XX=            -32.1291   YY=            -31.6895   ZZ=            -38.1872
   XY=             -0.5714   XZ=             -0.1521   YZ=             -0.1218

 Normal termination of Gaussian 16 at Fri Nov 10 19:32:24 2023.
