 Gaussian 16, Revision B.01,
 Gaussian 16:  EM64L-G16RevB.01 20-Dec-2017

 ---------------------------------
 # TD=(NStates=1) B3LYP/6-31G(d,p)
 ---------------------------------

 -------
 ABSSPCT
 -------
 Symbolic Z-matrix:
 Charge =  0 Multiplicity = 1

                         Standard orientation:
 ---------------------------------------------------------------------
 Center     Atomic      Atomic             Coordinates (Angstroms)
 Number     Number       Type             X           Y           Z
 ---------------------------------------------------------------------
      1          6           0       -1.398490   -0.034169   -0.026570
      2          6           0       -0.785594    1.157113    0.012169
      3          6           0        0.649162    1.253283    0.010339
      4          6           0        1.392308    0.040190    0.065410
      5          6           0        0.742727   -1.176219   -0.020701
      6          6           0       -0.645647   -1.224010   -0.019972
      7          1           0       -2.413917   -0.199753    0.260079
      8          1           0       -1.248826   -2.081565    0.011122
      9          1           0        1.426300   -2.055096   -0.120526
     10          1           0        2.590237    0.088169    0.038197
     11          1           0        1.214856    2.170582   -0.170542
     12          1           0       -1.295445    1.980543   -0.142383
 ---------------------------------------------------------------------

 SCF Done:  E(RB3LYP) =  -232.221738062     A.U. after   13 cycles

 Excitation energies and oscillator strengths:

 Excited State   1:      Singlet-A      5.4155 eV  228.94 nm  f=0.0001  <S**2>=0.000
      20 -> 22         0.49361
      21 -> 23         0.50232
 This state for optimization and/or second-order correction.
 Total Energy, E(TD-HF/TD-DFT) =  -232.022722221
 Copying the excited state density for this state as the 1-particle RhoCI density.

 The electronic state is 1-A.
 Alpha  occ. eigenvalues --  -10.19914 -10.19477 -10.19120 -10.18432 -10.17930
 Alpha  occ. eigenvalues --  -10.17687  -0.84878  -0.74854  -0.73580  -0.60948
 Alpha  occ. eigenvalues --   -0.58938  -0.51993  -0.45944  -0.44189  -0.42127
 Alpha  occ. eigenvalues --   -0.40836  -0.36327  -0.34584  -0.32475  -0.25282
 Alpha  occ. eigenvalues --   -0.24094
 Alpha virt. eigenvalues --   -0.00728   0.00406   0.08469   0.13340   0.14930
 Alpha virt. eigenvalues --    0.15392   0.17534   0.18746   0.20118   0.28719
 Alpha virt. eigenvalues --    0.30215   0.30734   0.33858   0.46644   0.51998

 Mulliken charges:
               1
     1  C   -0.085402
     2  C   -0.071528
     3  C   -0.094658
     4  C   -0.091318
     5  C   -0.071172
     6  C   -0.087705
     7  H    0.087021
     8  H    0.083420
     9  H    0.084835
    10  H    0.078031
    11  H    0.090723
    12  H    0.077751
 Sum of Mulliken charges =  -0.00000

 Dipole moment (field-independent basis, Debye):
    X=             -0.0209    Y=              0.0062    Z=             -0.0825  Tot=              0.0853
 Quadrupole moment (field-independent basis, Debye-Ang):
   XX=            -31.3723   YY=            -32.0446   ZZ=            -38.3517
   XY=              0.3441   XZ=             -0.6495   YZ=             -0.4527

 Normal termination of Gaussian 16 at Fri Nov 10 18:02:51 2023.
