 Gaussian 16, Revision B.01,
 Gaussian 16:  EM64L-G16RevB.01 20-Dec-2017

 ---------------------------------
 # TD=(NStates=1) B3LYP/6-31G(d,p)
 ---------------------------------

 -------
 ABSSPCT
 -------
 Symbolic Z-matrix:
 Charge =  0 Multiplicity = 1

                         Standard orientation:
 ---------------------------------------------------------------------
 Center     Atomic      Atomic             Coordinates (Angstroms)
 Number     Number       Type             X           Y           Z
 ---------------------------------------------------------------------
      1          6           0       -0.118423    1.421184    0.011588
      2          6           0        1.128361    0.794029   -0.080346
      3          6           0        1.359887   -0.611750    0.060191
      4          6           0        0.141844   -1.348661   -0.062070
      5          6           0       -1.151609   -0.744293   -0.067171
      6          6           0       -1.325625    0.554658    0.081932
      7          1           0       -0.186422    2.434558   -0.023079
      8          1           0       -2.327894    0.792557    0.112580
      9          1           0       -2.163765   -1.515826   -0.062041
     10          1           0        0.084061   -2.433509    0.146582
     11          1           0        2.386141   -1.031995    0.233862
     12          1           0        2.001262    1.363219   -0.072646
 ---------------------------------------------------------------------

 SCF Done:  E(RB3LYP) =  -232.203141083     A.U. after   13 cycles

 Excitation energies and oscillator strengths:

 Excited State   1:      Singlet-A      5.3273 eV  232.73 nm  f=0.0027  <S**2>=0.000
      20 -> 22         0.47993
      20 -> 23        -0.11438
      21 -> 22         0.20662
      21 -> 23         0.46208
 This state for optimization and/or second-order correction.
 Total Energy, E(TD-HF/TD-DFT) =  -232.007366541
 Copying the excited state density for this state as the 1-particle RhoCI density.

 The electronic state is 1-A.
 Alpha  occ. eigenvalues --  -10.20305 -10.19779 -10.19540 -10.19447 -10.18827
 Alpha  occ. eigenvalues --  -10.18501  -0.84220  -0.74904  -0.72896  -0.61338
 Alpha  occ. eigenvalues --   -0.57938  -0.51540  -0.46201  -0.43455  -0.42153
 Alpha  occ. eigenvalues --   -0.40300  -0.35631  -0.34475  -0.32418  -0.25387
 Alpha  occ. eigenvalues --   -0.23762
 Alpha virt. eigenvalues --   -0.01395   0.00668   0.07116   0.12427   0.14259
 Alpha virt. eigenvalues --    0.15470   0.16967   0.18497   0.18854   0.27754
 Alpha virt. eigenvalues --    0.28326   0.31253   0.31966   0.46279   0.49538

 Mulliken charges:
               1
     1  C   -0.085673
     2  C   -0.091225
     3  C   -0.086946
     4  C   -0.096812
     5  C   -0.073747
     6  C   -0.067910
     7  H    0.088596
     8  H    0.086189
     9  H    0.064015
    10  H    0.081032
    11  H    0.102720
    12  H    0.079761
 Sum of Mulliken charges =  -0.00000

 Dipole moment (field-independent basis, Debye):
    X=              0.1065    Y=              0.1248    Z=              0.2295  Tot=              0.2821
 Quadrupole moment (field-independent basis, Debye-Ang):
   XX=            -30.8528   YY=            -32.3711   ZZ=            -38.6861
   XY=             -0.0395   XZ=              0.2490   YZ=             -0.4997

 Normal termination of Gaussian 16 at Fri Nov 10 16:26:51 2023.
