 Gaussian 16, Revision B.01,
 Gaussian 16:  EM64L-G16RevB.01 20-Dec-2017

 ---------------------------------
 # TD=(NStates=1) B3LYP/6-31G(d,p)
 ---------------------------------

 -------
 ABSSPCT
 -------
 Symbolic Z-matrix:
 Charge =  0 Multiplicity = 1

                         Standard orientation:
 ---------------------------------------------------------------------
 Center     Atomic      Atomic             Coordinates (Angstroms)
 Number     Number       Type             X           Y           Z
 ---------------------------------------------------------------------
      1          6           0       -1.079908    0.834706   -0.022864
      2          6           0       -1.320945   -0.488723    0.043482
      3          6           0       -0.180652   -1.311186    0.011938
      4          6           0        1.137297   -0.866517   -0.040896
      5          6           0        1.262190    0.498519    0.003814
      6          6           0        0.190034    1.365145   -0.042761
      7          1           0       -1.948307    1.516340    0.014639
      8          1           0        0.459258    2.420862    0.161068
      9          1           0        2.371217    0.831278    0.103519
     10          1           0        1.927474   -1.567305    0.051524
     11          1           0       -0.472106   -2.355316    0.003092
     12          1           0       -2.385626   -1.037520   -0.050125
 ---------------------------------------------------------------------

 SCF Done:  E(RB3LYP) =  -232.228193017     A.U. after   13 cycles

 Excitation energies and oscillator strengths:

 Excited State   1:      Singlet-A      5.6522 eV  219.35 nm  f=0.0007  <S**2>=0.000
      20 -> 22         0.47323
      21 -> 22         0.10022
      21 -> 23         0.50885
 This state for optimization and/or second-order correction.
 Total Energy, E(TD-HF/TD-DFT) =  -232.020476659
 Copying the excited state density for this state as the 1-particle RhoCI density.

 The electronic state is 1-A.
 Alpha  occ. eigenvalues --  -10.19353 -10.19153 -10.18786 -10.18664 -10.18520
 Alpha  occ. eigenvalues --  -10.18391  -0.85835  -0.75035  -0.73868  -0.60430
 Alpha  occ. eigenvalues --   -0.58902  -0.51740  -0.45510  -0.44055  -0.41856
 Alpha  occ. eigenvalues --   -0.40737  -0.36670  -0.33241  -0.33074  -0.25596
 Alpha  occ. eigenvalues --   -0.24569
 Alpha virt. eigenvalues --    0.00052   0.00648   0.07449   0.11911   0.14462
 Alpha virt. eigenvalues --    0.16120   0.17689   0.18125   0.19132   0.28791
 Alpha virt. eigenvalues --    0.30566   0.32866   0.33997   0.45130   0.51447

 Mulliken charges:
               1
     1  C   -0.099066
     2  C   -0.068570
     3  C   -0.099651
     4  C   -0.054239
     5  C   -0.103241
     6  C   -0.072304
     7  H    0.079578
     8  H    0.091612
     9  H    0.074401
    10  H    0.091266
    11  H    0.073284
    12  H    0.086929
 Sum of Mulliken charges =  -0.00000

 Dipole moment (field-independent basis, Debye):
    X=              0.0328    Y=             -0.1361    Z=              0.1652  Tot=              0.2166
 Quadrupole moment (field-independent basis, Debye-Ang):
   XX=            -31.5998   YY=            -32.1643   ZZ=            -38.4406
   XY=              0.1107   XZ=              0.4297   YZ=              0.3951

 Normal termination of Gaussian 16 at Fri Nov 10 17:09:18 2023.
