 Gaussian 16, Revision B.01,
 Gaussian 16:  EM64L-G16RevB.01 20-Dec-2017

 ---------------------------------
 # TD=(NStates=1) B3LYP/6-31G(d,p)
 ---------------------------------

 -------
 ABSSPCT
 -------
 Symbolic Z-matrix:
 Charge =  0 Multiplicity = 1

                         Standard orientation:
 ---------------------------------------------------------------------
 Center     Atomic      Atomic             Coordinates (Angstroms)
 Number     Number       Type             X           Y           Z
 ---------------------------------------------------------------------
      1          6           0        1.059214   -0.926495   -0.000909
      2          6           0       -0.257486   -1.361287   -0.058969
      3          6           0       -1.340236   -0.475771    0.018245
      4          6           0       -1.020350    0.877132   -0.041084
      5          6           0        0.236079    1.393870   -0.007156
      6          6           0        1.356531    0.439596    0.101004
      7          1           0        1.901437   -1.532094    0.047985
      8          1           0        2.313753    0.971777   -0.068536
      9          1           0        0.327652    2.471937   -0.179443
     10          1           0       -1.918946    1.597479   -0.058445
     11          1           0       -2.492740   -0.755951    0.428034
     12          1           0       -0.333671   -2.435422   -0.236375
 ---------------------------------------------------------------------

 SCF Done:  E(RB3LYP) =  -232.211669126     A.U. after   13 cycles

 Excitation energies and oscillator strengths:

 Excited State   1:      Singlet-A      5.2745 eV  235.06 nm  f=0.0022  <S**2>=0.000
      20 -> 22         0.54519
      21 -> 23        -0.44978
 This state for optimization and/or second-order correction.
 Total Energy, E(TD-HF/TD-DFT) =  -232.017834183
 Copying the excited state density for this state as the 1-particle RhoCI density.

 The electronic state is 1-A.
 Alpha  occ. eigenvalues --  -10.20607 -10.19803 -10.19403 -10.19044 -10.18810
 Alpha  occ. eigenvalues --  -10.18800  -0.84684  -0.74596  -0.73235  -0.60132
 Alpha  occ. eigenvalues --   -0.58935  -0.50977  -0.45893  -0.43260  -0.41526
 Alpha  occ. eigenvalues --   -0.40729  -0.36353  -0.33662  -0.32485  -0.25227
 Alpha  occ. eigenvalues --   -0.23902
 Alpha virt. eigenvalues --   -0.01799   0.00793   0.07043   0.12049   0.13587
 Alpha virt. eigenvalues --    0.15456   0.16553   0.18214   0.18277   0.27740
 Alpha virt. eigenvalues --    0.30025   0.30587   0.33528   0.46118   0.50810

 Mulliken charges:
               1
     1  C   -0.073140
     2  C   -0.094103
     3  C   -0.089027
     4  C   -0.073191
     5  C   -0.085331
     6  C   -0.108749
     7  H    0.091539
     8  H    0.093100
     9  H    0.090301
    10  H    0.072648
    11  H    0.087760
    12  H    0.088194
 Sum of Mulliken charges =  -0.00000

 Dipole moment (field-independent basis, Debye):
    X=              0.1366    Y=              0.0403    Z=             -0.0599  Tot=              0.1545
 Quadrupole moment (field-independent basis, Debye-Ang):
   XX=            -31.9271   YY=            -31.8551   ZZ=            -38.5473
   XY=             -0.1763   XZ=             -0.8463   YZ=             -0.3533

 Normal termination of Gaussian 16 at Fri Nov 10 17:07:49 2023.
