 Gaussian 16, Revision B.01,
 Gaussian 16:  EM64L-G16RevB.01 20-Dec-2017

 ---------------------------------
 # TD=(NStates=1) B3LYP/6-31G(d,p)
 ---------------------------------

 -------
 ABSSPCT
 -------
 Symbolic Z-matrix:
 Charge =  0 Multiplicity = 1

                         Standard orientation:
 ---------------------------------------------------------------------
 Center     Atomic      Atomic             Coordinates (Angstroms)
 Number     Number       Type             X           Y           Z
 ---------------------------------------------------------------------
      1          6           0        0.245149   -1.379884    0.002177
      2          6           0        1.349812   -0.450337   -0.026990
      3          6           0        1.101353    0.879440    0.041648
      4          6           0       -0.273456    1.373594   -0.085374
      5          6           0       -1.331511    0.462512    0.034824
      6          6           0       -1.076518   -0.893976   -0.017286
      7          1           0        0.247909   -2.279002    0.068112
      8          1           0       -1.748677   -1.616033    0.054637
      9          1           0       -2.352380    0.889835    0.068538
     10          1           0       -0.516406    2.347603   -0.005362
     11          1           0        1.968650    1.619186    0.215093
     12          1           0        2.311931   -0.909676   -0.095017
 ---------------------------------------------------------------------

 SCF Done:  E(RB3LYP) =  -232.191613914     A.U. after   13 cycles

 Excitation energies and oscillator strengths:

 Excited State   1:      Singlet-A      5.3270 eV  232.75 nm  f=0.0004  <S**2>=0.000
      20 -> 22         0.51388
      21 -> 23        -0.48037
 This state for optimization and/or second-order correction.
 Total Energy, E(TD-HF/TD-DFT) =  -231.995851012
 Copying the excited state density for this state as the 1-particle RhoCI density.

 The electronic state is 1-A.
 Alpha  occ. eigenvalues --  -10.19875 -10.18863 -10.18819 -10.18571 -10.17363
 Alpha  occ. eigenvalues --  -10.17124  -0.84304  -0.74527  -0.74263  -0.61560
 Alpha  occ. eigenvalues --   -0.59492  -0.52260  -0.47965  -0.43871  -0.41761
 Alpha  occ. eigenvalues --   -0.41200  -0.35791  -0.35615  -0.32676  -0.24960
 Alpha  occ. eigenvalues --   -0.23733
 Alpha virt. eigenvalues --   -0.00956   0.00657   0.10085   0.14016   0.15218
 Alpha virt. eigenvalues --    0.16153   0.17251   0.19045   0.22192   0.28469
 Alpha virt. eigenvalues --    0.29913   0.30836   0.33064   0.46737   0.49964

 Mulliken charges:
               1
     1  C   -0.033244
     2  C   -0.076129
     3  C   -0.098785
     4  C   -0.083509
     5  C   -0.086443
     6  C   -0.072813
     7  H    0.043660
     8  H    0.070885
     9  H    0.082308
    10  H    0.081730
    11  H    0.085270
    12  H    0.087068
 Sum of Mulliken charges =  -0.00000

 Dipole moment (field-independent basis, Debye):
    X=             -0.0599    Y=             -0.1417    Z=              0.1909  Tot=              0.2451
 Quadrupole moment (field-independent basis, Debye-Ang):
   XX=            -31.7051   YY=            -31.0472   ZZ=            -38.2641
   XY=             -0.1121   XZ=             -0.0452   YZ=              0.1731

 Normal termination of Gaussian 16 at Fri Nov 10 18:21:01 2023.
