 Gaussian 16, Revision B.01,
 Gaussian 16:  EM64L-G16RevB.01 20-Dec-2017

 ---------------------------------
 # TD=(NStates=1) B3LYP/6-31G(d,p)
 ---------------------------------

 -------
 ABSSPCT
 -------
 Symbolic Z-matrix:
 Charge =  0 Multiplicity = 1

                         Standard orientation:
 ---------------------------------------------------------------------
 Center     Atomic      Atomic             Coordinates (Angstroms)
 Number     Number       Type             X           Y           Z
 ---------------------------------------------------------------------
      1          6           0       -0.466681   -1.333142   -0.051564
      2          6           0        0.967905   -1.013458   -0.006505
      3          6           0        1.431175    0.248739   -0.017324
      4          6           0        0.411179    1.377475   -0.030497
      5          6           0       -0.903856    1.023505    0.032683
      6          6           0       -1.384002   -0.306030   -0.033818
      7          1           0       -0.791227   -2.300980   -0.148444
      8          1           0       -2.685224   -0.462055    0.271710
      9          1           0       -1.648976    1.853495    0.143923
     10          1           0        0.705245    2.449869   -0.134028
     11          1           0        2.492897    0.356553    0.163359
     12          1           0        1.592959   -1.879410    0.345630
 ---------------------------------------------------------------------

 SCF Done:  E(RB3LYP) =  -232.199122296     A.U. after   13 cycles

 Excitation energies and oscillator strengths:

 Excited State   1:      Singlet-A      5.3216 eV  232.98 nm  f=0.0024  <S**2>=0.000
      20 -> 22         0.54724
      21 -> 23        -0.43438
 This state for optimization and/or second-order correction.
 Total Energy, E(TD-HF/TD-DFT) =  -232.003556467
 Copying the excited state density for this state as the 1-particle RhoCI density.

 The electronic state is 1-A.
 Alpha  occ. eigenvalues --  -10.21177 -10.20345 -10.19693 -10.19422 -10.19209
 Alpha  occ. eigenvalues --  -10.19125  -0.84148  -0.74289  -0.73417  -0.60273
 Alpha  occ. eigenvalues --   -0.57995  -0.50949  -0.45416  -0.43402  -0.41337
 Alpha  occ. eigenvalues --   -0.40517  -0.36536  -0.33247  -0.32357  -0.25246
 Alpha  occ. eigenvalues --   -0.24289
 Alpha virt. eigenvalues --   -0.01633   0.00501   0.05746   0.11297   0.12904
 Alpha virt. eigenvalues --    0.15052   0.16697   0.17430   0.18473   0.26578
 Alpha virt. eigenvalues --    0.28609   0.31798   0.32399   0.46168   0.48997

 Mulliken charges:
               1
     1  C   -0.093494
     2  C   -0.083646
     3  C   -0.099189
     4  C   -0.094982
     5  C   -0.076753
     6  C   -0.066466
     7  H    0.091070
     8  H    0.061685
     9  H    0.084776
    10  H    0.094578
    11  H    0.093422
    12  H    0.089000
 Sum of Mulliken charges =  -0.00000

 Dipole moment (field-independent basis, Debye):
    X=              0.1227    Y=              0.0101    Z=              0.3499  Tot=              0.3709
 Quadrupole moment (field-independent basis, Debye-Ang):
   XX=            -32.2031   YY=            -31.5537   ZZ=            -38.7181
   XY=             -0.1150   XZ=              0.1036   YZ=             -0.3528

 Normal termination of Gaussian 16 at Fri Nov 10 17:34:14 2023.
