 Gaussian 16, Revision B.01,
 Gaussian 16:  EM64L-G16RevB.01 20-Dec-2017

 ---------------------------------
 # TD=(NStates=1) B3LYP/6-31G(d,p)
 ---------------------------------

 -------
 ABSSPCT
 -------
 Symbolic Z-matrix:
 Charge =  0 Multiplicity = 1

                         Standard orientation:
 ---------------------------------------------------------------------
 Center     Atomic      Atomic             Coordinates (Angstroms)
 Number     Number       Type             X           Y           Z
 ---------------------------------------------------------------------
      1          6           0        0.175878   -1.354400    0.030164
      2          6           0        1.295976   -0.580977   -0.038324
      3          6           0        1.186995    0.836579   -0.028559
      4          6           0       -0.160410    1.368288    0.028837
      5          6           0       -1.310277    0.565578    0.003040
      6          6           0       -1.124863   -0.811929   -0.056476
      7          1           0        0.378571   -2.289657    0.121599
      8          1           0       -1.990871   -1.618880    0.007071
      9          1           0       -2.506829    0.821870    0.046466
     10          1           0       -0.302682    2.422067    0.080361
     11          1           0        1.894588    1.659540   -0.029645
     12          1           0        2.147428   -1.133776    0.142066
 ---------------------------------------------------------------------

 SCF Done:  E(RB3LYP) =  -232.203795342     A.U. after   13 cycles

 Excitation energies and oscillator strengths:

 Excited State   1:      Singlet-A      5.4051 eV  229.38 nm  f=0.0014  <S**2>=0.000
      20 -> 22         0.47163
      20 -> 23         0.14554
      21 -> 22         0.20727
      21 -> 23        -0.46155
 This state for optimization and/or second-order correction.
 Total Energy, E(TD-HF/TD-DFT) =  -232.005161854
 Copying the excited state density for this state as the 1-particle RhoCI density.

 The electronic state is 1-A.
 Alpha  occ. eigenvalues --  -10.20346 -10.20008 -10.19665 -10.19338 -10.18411
 Alpha  occ. eigenvalues --  -10.17075  -0.84533  -0.74917  -0.73333  -0.60368
 Alpha  occ. eigenvalues --   -0.59609  -0.51732  -0.46340  -0.43362  -0.41636
 Alpha  occ. eigenvalues --   -0.40765  -0.35869  -0.34289  -0.32781  -0.25199
 Alpha  occ. eigenvalues --   -0.24125
 Alpha virt. eigenvalues --   -0.00776   0.00433   0.07577   0.12785   0.13867
 Alpha virt. eigenvalues --    0.15351   0.16042   0.18050   0.21521   0.28139
 Alpha virt. eigenvalues --    0.30057   0.31342   0.32027   0.46017   0.49788

 Mulliken charges:
               1
     1  C   -0.043034
     2  C   -0.091447
     3  C   -0.082669
     4  C   -0.113741
     5  C   -0.075396
     6  C   -0.088129
     7  H    0.066528
     8  H    0.076744
     9  H    0.086649
    10  H    0.086711
    11  H    0.095108
    12  H    0.082676
 Sum of Mulliken charges =  -0.00000

 Dipole moment (field-independent basis, Debye):
    X=              0.0793    Y=             -0.0950    Z=              0.2267  Tot=              0.2583
 Quadrupole moment (field-independent basis, Debye-Ang):
   XX=            -31.9838   YY=            -31.2611   ZZ=            -38.6203
   XY=              0.0880   XZ=              0.1098   YZ=             -0.2648

 Normal termination of Gaussian 16 at Fri Nov 10 17:33:11 2023.
