 Gaussian 16, Revision B.01,
 Gaussian 16:  EM64L-G16RevB.01 20-Dec-2017

 ---------------------------------
 # TD=(NStates=1) B3LYP/6-31G(d,p)
 ---------------------------------

 -------
 ABSSPCT
 -------
 Symbolic Z-matrix:
 Charge =  0 Multiplicity = 1

                         Standard orientation:
 ---------------------------------------------------------------------
 Center     Atomic      Atomic             Coordinates (Angstroms)
 Number     Number       Type             X           Y           Z
 ---------------------------------------------------------------------
      1          6           0       -0.284968   -1.323963   -0.075225
      2          6           0        1.055665   -0.944904    0.112414
      3          6           0        1.298191    0.413099   -0.043548
      4          6           0        0.278501    1.364610   -0.045848
      5          6           0       -1.022431    0.924562    0.032801
      6          6           0       -1.327815   -0.381932   -0.061055
      7          1           0       -0.824753   -2.338687   -0.077143
      8          1           0       -2.377736   -0.798869    0.240616
      9          1           0       -1.815012    1.586096    0.199287
     10          1           0        0.726989    2.324688    0.043627
     11          1           0        2.398775    0.568029   -0.035376
     12          1           0        1.908881   -1.650091    0.111751
 ---------------------------------------------------------------------

 SCF Done:  E(RB3LYP) =  -232.215849417     A.U. after   13 cycles

 Excitation energies and oscillator strengths:

 Excited State   1:      Singlet-A      5.4959 eV  225.59 nm  f=0.0008  <S**2>=0.000
      20 -> 22        -0.46280
      20 -> 23        -0.11888
      21 -> 22        -0.16313
      21 -> 23         0.49450
 This state for optimization and/or second-order correction.
 Total Energy, E(TD-HF/TD-DFT) =  -232.013877533
 Copying the excited state density for this state as the 1-particle RhoCI density.

 The electronic state is 1-A.
 Alpha  occ. eigenvalues --  -10.19471 -10.19205 -10.18846 -10.18757 -10.18632
 Alpha  occ. eigenvalues --  -10.18111  -0.85580  -0.74985  -0.73866  -0.61060
 Alpha  occ. eigenvalues --   -0.58574  -0.51874  -0.46121  -0.44222  -0.41435
 Alpha  occ. eigenvalues --   -0.40287  -0.36401  -0.33999  -0.32543  -0.25395
 Alpha  occ. eigenvalues --   -0.24341
 Alpha virt. eigenvalues --   -0.00351   0.00333   0.07710   0.12444   0.14391
 Alpha virt. eigenvalues --    0.15510   0.16858   0.18746   0.19530   0.28397
 Alpha virt. eigenvalues --    0.30968   0.31725   0.33442   0.45436   0.51800

 Mulliken charges:
               1
     1  C   -0.087659
     2  C   -0.081918
     3  C   -0.101463
     4  C   -0.070709
     5  C   -0.076631
     6  C   -0.092375
     7  H    0.077472
     8  H    0.085704
     9  H    0.082107
    10  H    0.091387
    11  H    0.084493
    12  H    0.089592
 Sum of Mulliken charges =  -0.00000

 Dipole moment (field-independent basis, Debye):
    X=              0.1018    Y=              0.0498    Z=              0.3032  Tot=              0.3236
 Quadrupole moment (field-independent basis, Debye-Ang):
   XX=            -31.1323   YY=            -32.7783   ZZ=            -38.3872
   XY=              0.2866   XZ=             -0.5870   YZ=              0.1520

 Normal termination of Gaussian 16 at Fri Nov 10 16:26:41 2023.
