 Gaussian 16, Revision B.01,
 Gaussian 16:  EM64L-G16RevB.01 20-Dec-2017

 ---------------------------------
 # TD=(NStates=1) B3LYP/6-31G(d,p)
 ---------------------------------

 -------
 ABSSPCT
 -------
 Symbolic Z-matrix:
 Charge =  0 Multiplicity = 1

                         Standard orientation:
 ---------------------------------------------------------------------
 Center     Atomic      Atomic             Coordinates (Angstroms)
 Number     Number       Type             X           Y           Z
 ---------------------------------------------------------------------
      1          6           0        0.032276   -1.339387   -0.078650
      2          6           0        1.254660   -0.660698    0.042510
      3          6           0        1.214843    0.661154    0.005797
      4          6           0       -0.004557    1.398939   -0.112028
      5          6           0       -1.229085    0.662774   -0.016634
      6          6           0       -1.211876   -0.712439    0.069338
      7          1           0        0.010980   -2.270171   -0.334376
      8          1           0       -2.203125   -1.232301    0.327123
      9          1           0       -2.243036    1.007570    0.051968
     10          1           0       -0.178898    2.472388    0.086325
     11          1           0        2.243755    1.195044    0.286869
     12          1           0        2.032758   -1.234586    0.120089
 ---------------------------------------------------------------------

 SCF Done:  E(RB3LYP) =  -232.191283859     A.U. after   14 cycles

 Excitation energies and oscillator strengths:

 Excited State   1:      Singlet-A      5.3298 eV  232.62 nm  f=0.0002  <S**2>=0.000
      20 -> 22         0.51191
      21 -> 23         0.48716
 This state for optimization and/or second-order correction.
 Total Energy, E(TD-HF/TD-DFT) =  -231.995416760
 Copying the excited state density for this state as the 1-particle RhoCI density.

 The electronic state is 1-A.
 Alpha  occ. eigenvalues --  -10.19779 -10.19679 -10.18818 -10.18622 -10.17446
 Alpha  occ. eigenvalues --  -10.17131  -0.85171  -0.75408  -0.73375  -0.61403
 Alpha  occ. eigenvalues --   -0.59126  -0.51863  -0.46816  -0.44335  -0.42591
 Alpha  occ. eigenvalues --   -0.40350  -0.36269  -0.34429  -0.32402  -0.25480
 Alpha  occ. eigenvalues --   -0.23358
 Alpha virt. eigenvalues --   -0.01487   0.01139   0.08862   0.11948   0.14677
 Alpha virt. eigenvalues --    0.15947   0.17112   0.19245   0.20707   0.29273
 Alpha virt. eigenvalues --    0.29414   0.32017   0.33339   0.46264   0.51376

 Mulliken charges:
               1
     1  C   -0.089971
     2  C   -0.022805
     3  C   -0.103692
     4  C   -0.103153
     5  C   -0.083858
     6  C   -0.083181
     7  H    0.071999
     8  H    0.086227
     9  H    0.084993
    10  H    0.095069
    11  H    0.072560
    12  H    0.075813
 Sum of Mulliken charges =  -0.00000

 Dipole moment (field-independent basis, Debye):
    X=             -0.1583    Y=             -0.3070    Z=              0.3041  Tot=              0.4602
 Quadrupole moment (field-independent basis, Debye-Ang):
   XX=            -31.2645   YY=            -32.3869   ZZ=            -38.1173
   XY=             -0.6097   XZ=             -0.0065   YZ=              0.6911

 Normal termination of Gaussian 16 at Fri Nov 10 19:00:04 2023.
