 Gaussian 16, Revision B.01,
 Gaussian 16:  EM64L-G16RevB.01 20-Dec-2017

 ---------------------------------
 # TD=(NStates=1) B3LYP/6-31G(d,p)
 ---------------------------------

 -------
 ABSSPCT
 -------
 Symbolic Z-matrix:
 Charge =  0 Multiplicity = 1

                         Standard orientation:
 ---------------------------------------------------------------------
 Center     Atomic      Atomic             Coordinates (Angstroms)
 Number     Number       Type             X           Y           Z
 ---------------------------------------------------------------------
      1          6           0       -0.545032   -1.215768    0.023866
      2          6           0       -1.440684   -0.189835   -0.027426
      3          6           0       -0.835471    1.080477    0.047860
      4          6           0        0.600470    1.288013   -0.024976
      5          6           0        1.409374    0.157959   -0.048075
      6          6           0        0.827455   -1.097384   -0.013878
      7          1           0       -0.870252   -2.261646    0.045966
      8          1           0        1.412308   -2.037154    0.151078
      9          1           0        2.476798    0.111272    0.029362
     10          1           0        1.019063    2.304823    0.122598
     11          1           0       -1.561836    2.015574    0.035018
     12          1           0       -2.572750   -0.273644   -0.128256
 ---------------------------------------------------------------------

 SCF Done:  E(RB3LYP) =  -232.233722654     A.U. after   13 cycles

 Excitation energies and oscillator strengths:

 Excited State   1:      Singlet-A      5.4754 eV  226.44 nm  f=0.0021  <S**2>=0.000
      20 -> 22         0.42381
      20 -> 23        -0.17954
      21 -> 22         0.22933
      21 -> 23         0.48493
 This state for optimization and/or second-order correction.
 Total Energy, E(TD-HF/TD-DFT) =  -232.032503956
 Copying the excited state density for this state as the 1-particle RhoCI density.

 The electronic state is 1-A.
 Alpha  occ. eigenvalues --  -10.20386 -10.19864 -10.19539 -10.18788 -10.18522
 Alpha  occ. eigenvalues --  -10.18293  -0.84986  -0.74759  -0.73185  -0.59976
 Alpha  occ. eigenvalues --   -0.58899  -0.51368  -0.45168  -0.44017  -0.42099
 Alpha  occ. eigenvalues --   -0.40221  -0.36192  -0.34050  -0.32839  -0.25392
 Alpha  occ. eigenvalues --   -0.24184
 Alpha virt. eigenvalues --   -0.00177   0.00171   0.07705   0.12889   0.13783
 Alpha virt. eigenvalues --    0.15667   0.16497   0.17442   0.19638   0.27743
 Alpha virt. eigenvalues --    0.30704   0.31070   0.33528   0.45879   0.50785

 Mulliken charges:
               1
     1  C   -0.084252
     2  C   -0.067155
     3  C   -0.110192
     4  C   -0.089742
     5  C   -0.081807
     6  C   -0.077466
     7  H    0.073257
     8  H    0.085898
     9  H    0.086822
    10  H    0.093028
    11  H    0.074196
    12  H    0.097413
 Sum of Mulliken charges =  -0.00000

 Dipole moment (field-independent basis, Debye):
    X=              0.0275    Y=             -0.1048    Z=              0.1479  Tot=              0.1833
 Quadrupole moment (field-independent basis, Debye-Ang):
   XX=            -31.3127   YY=            -32.1446   ZZ=            -38.6599
   XY=             -0.2466   XZ=              0.5689   YZ=             -0.0101

 Normal termination of Gaussian 16 at Fri Nov 10 19:04:05 2023.
