 Gaussian 16, Revision B.01,
 Gaussian 16:  EM64L-G16RevB.01 20-Dec-2017

 ---------------------------------
 # TD=(NStates=1) B3LYP/6-31G(d,p)
 ---------------------------------

 -------
 ABSSPCT
 -------
 Symbolic Z-matrix:
 Charge =  0 Multiplicity = 1

                         Standard orientation:
 ---------------------------------------------------------------------
 Center     Atomic      Atomic             Coordinates (Angstroms)
 Number     Number       Type             X           Y           Z
 ---------------------------------------------------------------------
      1          6           0        1.276304   -0.653174    0.062409
      2          6           0        1.163984    0.753954    0.024973
      3          6           0       -0.085346    1.377756   -0.046806
      4          6           0       -1.206355    0.611111    0.008771
      5          6           0       -1.198312   -0.761907    0.033850
      6          6           0        0.074142   -1.384721   -0.085025
      7          1           0        2.348945   -0.941392    0.029059
      8          1           0        0.115143   -2.352213    0.055257
      9          1           0       -2.149933   -1.446190   -0.102488
     10          1           0       -2.045979    1.175606    0.195645
     11          1           0       -0.467994    2.474543   -0.045851
     12          1           0        2.053311    1.431537   -0.120652
 ---------------------------------------------------------------------

 SCF Done:  E(RB3LYP) =  -232.205722171     A.U. after   13 cycles

 Excitation energies and oscillator strengths:

 Excited State   1:      Singlet-A      5.4290 eV  228.37 nm  f=0.0001  <S**2>=0.000
      20 -> 22         0.51160
      21 -> 23        -0.48609
 This state for optimization and/or second-order correction.
 Total Energy, E(TD-HF/TD-DFT) =  -232.006210756
 Copying the excited state density for this state as the 1-particle RhoCI density.

 The electronic state is 1-A.
 Alpha  occ. eigenvalues --  -10.19830 -10.19737 -10.19461 -10.18929 -10.18411
 Alpha  occ. eigenvalues --  -10.17387  -0.85045  -0.74847  -0.73737  -0.60376
 Alpha  occ. eigenvalues --   -0.59699  -0.51790  -0.45945  -0.42993  -0.41827
 Alpha  occ. eigenvalues --   -0.40818  -0.36485  -0.33651  -0.32844  -0.25004
 Alpha  occ. eigenvalues --   -0.24659
 Alpha virt. eigenvalues --   -0.00580   0.00045   0.07995   0.12339   0.12901
 Alpha virt. eigenvalues --    0.15700   0.17136   0.18848   0.20314   0.28696
 Alpha virt. eigenvalues --    0.29814   0.31676   0.32960   0.45091   0.48901

 Mulliken charges:
               1
     1  C   -0.081777
     2  C   -0.114125
     3  C   -0.063646
     4  C   -0.068253
     5  C   -0.090657
     6  C   -0.092696
     7  H    0.096530
     8  H    0.082757
     9  H    0.086858
    10  H    0.076933
    11  H    0.084433
    12  H    0.083645
 Sum of Mulliken charges =  -0.00000

 Dipole moment (field-independent basis, Debye):
    X=             -0.0519    Y=              0.0406    Z=              0.0071  Tot=              0.0663
 Quadrupole moment (field-independent basis, Debye-Ang):
   XX=            -31.5682   YY=            -32.0043   ZZ=            -38.4948
   XY=             -0.3005   XZ=             -0.2650   YZ=             -0.0402

 Normal termination of Gaussian 16 at Fri Nov 10 18:34:03 2023.
