 Gaussian 16, Revision B.01,
 Gaussian 16:  EM64L-G16RevB.01 20-Dec-2017

 ---------------------------------
 # TD=(NStates=1) B3LYP/6-31G(d,p)
 ---------------------------------

 -------
 ABSSPCT
 -------
 Symbolic Z-matrix:
 Charge =  0 Multiplicity = 1

                         Standard orientation:
 ---------------------------------------------------------------------
 Center     Atomic      Atomic             Coordinates (Angstroms)
 Number     Number       Type             X           Y           Z
 ---------------------------------------------------------------------
      1          6           0       -0.989734   -0.950482    0.000688
      2          6           0       -1.352087    0.366204   -0.056083
      3          6           0       -0.331976    1.385791    0.000318
      4          6           0        1.024704    0.956066    0.036849
      5          6           0        1.290498   -0.404277    0.036901
      6          6           0        0.352433   -1.367206   -0.075586
      7          1           0       -1.824853   -1.676210    0.162993
      8          1           0        0.605644   -2.297852    0.016988
      9          1           0        2.527066   -0.641003    0.115154
     10          1           0        1.931443    1.711023   -0.129564
     11          1           0       -0.685935    2.401414   -0.062108
     12          1           0       -2.516388    0.586056    0.238007
 ---------------------------------------------------------------------

 SCF Done:  E(RB3LYP) =  -232.199737124     A.U. after   13 cycles

 Excitation energies and oscillator strengths:

 Excited State   1:      Singlet-A      5.4247 eV  228.55 nm  f=0.0019  <S**2>=0.000
      20 -> 22         0.49071
      20 -> 23         0.14179
      21 -> 22        -0.19581
      21 -> 23         0.44738
 This state for optimization and/or second-order correction.
 Total Energy, E(TD-HF/TD-DFT) =  -232.000381482
 Copying the excited state density for this state as the 1-particle RhoCI density.

 The electronic state is 1-A.
 Alpha  occ. eigenvalues --  -10.20260 -10.20089 -10.20016 -10.19965 -10.19198
 Alpha  occ. eigenvalues --  -10.17860  -0.85188  -0.74366  -0.73874  -0.61183
 Alpha  occ. eigenvalues --   -0.57705  -0.51285  -0.45824  -0.44138  -0.41427
 Alpha  occ. eigenvalues --   -0.39680  -0.36240  -0.34420  -0.32281  -0.25206
 Alpha  occ. eigenvalues --   -0.24670
 Alpha virt. eigenvalues --   -0.00999   0.00285   0.06431   0.10334   0.13904
 Alpha virt. eigenvalues --    0.15076   0.16463   0.17513   0.19399   0.28367
 Alpha virt. eigenvalues --    0.29636   0.31866   0.32983   0.46339   0.51499

 Mulliken charges:
               1
     1  C   -0.090445
     2  C   -0.087571
     3  C   -0.101005
     4  C   -0.079737
     5  C   -0.079097
     6  C   -0.046608
     7  H    0.085332
     8  H    0.078427
     9  H    0.063169
    10  H    0.087520
    11  H    0.094031
    12  H    0.075983
 Sum of Mulliken charges =  -0.00000

 Dipole moment (field-independent basis, Debye):
    X=             -0.0452    Y=             -0.0854    Z=              0.1756  Tot=              0.2004
 Quadrupole moment (field-independent basis, Debye-Ang):
   XX=            -32.1025   YY=            -31.9060   ZZ=            -38.6753
   XY=              0.1817   XZ=             -0.6952   YZ=             -0.5062

 Normal termination of Gaussian 16 at Fri Nov 10 17:02:19 2023.
