 Gaussian 16, Revision B.01,
 Gaussian 16:  EM64L-G16RevB.01 20-Dec-2017

 ---------------------------------
 # TD=(NStates=1) B3LYP/6-31G(d,p)
 ---------------------------------

 -------
 ABSSPCT
 -------
 Symbolic Z-matrix:
 Charge =  0 Multiplicity = 1

                         Standard orientation:
 ---------------------------------------------------------------------
 Center     Atomic      Atomic             Coordinates (Angstroms)
 Number     Number       Type             X           Y           Z
 ---------------------------------------------------------------------
      1          6           0       -1.117177   -0.806275    0.017122
      2          6           0        0.125400   -1.422278    0.049379
      3          6           0        1.275617   -0.532237    0.043388
      4          6           0        1.141321    0.839719   -0.023842
      5          6           0       -0.118141    1.362335   -0.095728
      6          6           0       -1.321679    0.539111   -0.028344
      7          1           0       -1.947551   -1.391216   -0.041215
      8          1           0       -2.288632    0.987095    0.165147
      9          1           0       -0.371540    2.452111    0.291001
     10          1           0        2.085020    1.577327    0.065481
     11          1           0        2.122995   -1.154408    0.005190
     12          1           0        0.487658   -2.353162   -0.257458
 ---------------------------------------------------------------------

 SCF Done:  E(RB3LYP) =  -232.200681579     A.U. after   13 cycles

 Excitation energies and oscillator strengths:

 Excited State   1:      Singlet-A      5.2720 eV  235.18 nm  f=0.0016  <S**2>=0.000
      20 -> 22         0.50956
      21 -> 22        -0.12280
      21 -> 23         0.47014
 This state for optimization and/or second-order correction.
 Total Energy, E(TD-HF/TD-DFT) =  -232.006940713
 Copying the excited state density for this state as the 1-particle RhoCI density.

 The electronic state is 1-A.
 Alpha  occ. eigenvalues --  -10.20084 -10.19970 -10.19129 -10.18818 -10.18680
 Alpha  occ. eigenvalues --  -10.17973  -0.84820  -0.74919  -0.73672  -0.60170
 Alpha  occ. eigenvalues --   -0.59704  -0.51522  -0.45673  -0.45050  -0.41892
 Alpha  occ. eigenvalues --   -0.40405  -0.35778  -0.34761  -0.31510  -0.25571
 Alpha  occ. eigenvalues --   -0.23805
 Alpha virt. eigenvalues --   -0.01872   0.00544   0.07850   0.13065   0.13864
 Alpha virt. eigenvalues --    0.14204   0.16895   0.19215   0.20717   0.26968
 Alpha virt. eigenvalues --    0.28506   0.31724   0.34864   0.45528   0.50427

 Mulliken charges:
               1
     1  C   -0.076604
     2  C   -0.082693
     3  C   -0.096452
     4  C   -0.065114
     5  C   -0.106493
     6  C   -0.082681
     7  H    0.074861
     8  H    0.095251
     9  H    0.078821
    10  H    0.082352
    11  H    0.082713
    12  H    0.096039
 Sum of Mulliken charges =  -0.00000

 Dipole moment (field-independent basis, Debye):
    X=             -0.0443    Y=             -0.1869    Z=              0.1023  Tot=              0.2176
 Quadrupole moment (field-independent basis, Debye-Ang):
   XX=            -31.7627   YY=            -32.2466   ZZ=            -38.3702
   XY=             -0.8949   XZ=             -0.4190   YZ=              1.3922

 Normal termination of Gaussian 16 at Fri Nov 10 18:59:14 2023.
