 Gaussian 16, Revision B.01,
 Gaussian 16:  EM64L-G16RevB.01 20-Dec-2017

 ---------------------------------
 # TD=(NStates=1) B3LYP/6-31G(d,p)
 ---------------------------------

 -------
 ABSSPCT
 -------
 Symbolic Z-matrix:
 Charge =  0 Multiplicity = 1

                         Standard orientation:
 ---------------------------------------------------------------------
 Center     Atomic      Atomic             Coordinates (Angstroms)
 Number     Number       Type             X           Y           Z
 ---------------------------------------------------------------------
      1          6           0        1.267588    0.618929    0.091080
      2          6           0        0.120763    1.403749    0.020012
      3          6           0       -1.251640    0.785095   -0.086729
      4          6           0       -1.245344   -0.668726   -0.002479
      5          6           0       -0.084487   -1.430185    0.025228
      6          6           0        1.167515   -0.725202   -0.126275
      7          1           0        2.416758    0.890869    0.023327
      8          1           0        2.080229   -1.306697    0.082396
      9          1           0       -0.193394   -2.390601    0.080522
     10          1           0       -2.184385   -1.081293    0.214448
     11          1           0       -2.053627    1.438181    0.107395
     12          1           0        0.088041    2.547580   -0.033109
 ---------------------------------------------------------------------

 SCF Done:  E(RB3LYP) =  -232.197581697     A.U. after   14 cycles

 Excitation energies and oscillator strengths:

 Excited State   1:      Singlet-A      5.1312 eV  241.63 nm  f=0.0030  <S**2>=0.000
      20 -> 22         0.51950
      21 -> 22        -0.13951
      21 -> 23         0.45332
 This state for optimization and/or second-order correction.
 Total Energy, E(TD-HF/TD-DFT) =  -232.009015015
 Copying the excited state density for this state as the 1-particle RhoCI density.

 The electronic state is 1-A.
 Alpha  occ. eigenvalues --  -10.20676 -10.20132 -10.19767 -10.19116 -10.19066
 Alpha  occ. eigenvalues --  -10.18333  -0.83867  -0.74570  -0.72895  -0.60680
 Alpha  occ. eigenvalues --   -0.58921  -0.51699  -0.46583  -0.43743  -0.41253
 Alpha  occ. eigenvalues --   -0.40715  -0.35989  -0.34330  -0.31894  -0.25261
 Alpha  occ. eigenvalues --   -0.23686
 Alpha virt. eigenvalues --   -0.02246   0.00224   0.08244   0.12675   0.13931
 Alpha virt. eigenvalues --    0.15006   0.16986   0.18270   0.19917   0.26208
 Alpha virt. eigenvalues --    0.27624   0.31892   0.31963   0.45173   0.46363

 Mulliken charges:
               1
     1  C   -0.066269
     2  C   -0.111273
     3  C   -0.094907
     4  C   -0.092018
     5  C   -0.053512
     6  C   -0.098125
     7  H    0.087659
     8  H    0.082011
     9  H    0.078503
    10  H    0.083590
    11  H    0.099402
    12  H    0.084939
 Sum of Mulliken charges =  -0.00000

 Dipole moment (field-independent basis, Debye):
    X=             -0.1415    Y=             -0.1203    Z=              0.3157  Tot=              0.3663
 Quadrupole moment (field-independent basis, Debye-Ang):
   XX=            -31.5143   YY=            -31.8336   ZZ=            -38.7107
   XY=             -0.5203   XZ=             -0.4309   YZ=             -0.3642

 Normal termination of Gaussian 16 at Fri Nov 10 17:02:42 2023.
