 Gaussian 16, Revision B.01,
 Gaussian 16:  EM64L-G16RevB.01 20-Dec-2017

 ---------------------------------
 # TD=(NStates=1) B3LYP/6-31G(d,p)
 ---------------------------------

 -------
 ABSSPCT
 -------
 Symbolic Z-matrix:
 Charge =  0 Multiplicity = 1

                         Standard orientation:
 ---------------------------------------------------------------------
 Center     Atomic      Atomic             Coordinates (Angstroms)
 Number     Number       Type             X           Y           Z
 ---------------------------------------------------------------------
      1          6           0        0.612607    1.197684   -0.005975
      2          6           0        1.411974    0.067683    0.000610
      3          6           0        0.747324   -1.157303   -0.025300
      4          6           0       -0.627284   -1.219106   -0.041210
      5          6           0       -1.376658   -0.054733    0.022989
      6          6           0       -0.770306    1.154943   -0.008628
      7          1           0        1.177035    2.097981   -0.111900
      8          1           0       -1.344841    2.051154   -0.010735
      9          1           0       -2.493550   -0.221469    0.262279
     10          1           0       -1.301868   -2.082522   -0.157086
     11          1           0        1.463726   -1.915829    0.208888
     12          1           0        2.513559    0.135683    0.153636
 ---------------------------------------------------------------------

 SCF Done:  E(RB3LYP) =  -232.230986887     A.U. after   13 cycles

 Excitation energies and oscillator strengths:

 Excited State   1:      Singlet-A      5.5579 eV  223.08 nm  f=0.0000  <S**2>=0.000
      20 -> 22         0.50346
      21 -> 23         0.49171
 This state for optimization and/or second-order correction.
 Total Energy, E(TD-HF/TD-DFT) =  -232.026737856
 Copying the excited state density for this state as the 1-particle RhoCI density.

 The electronic state is 1-A.
 Alpha  occ. eigenvalues --  -10.18797 -10.18727 -10.18589 -10.18432 -10.18183
 Alpha  occ. eigenvalues --  -10.18100  -0.85663  -0.74846  -0.74171  -0.60900
 Alpha  occ. eigenvalues --   -0.58968  -0.52086  -0.45328  -0.44962  -0.41914
 Alpha  occ. eigenvalues --   -0.40566  -0.37250  -0.34294  -0.32142  -0.25016
 Alpha  occ. eigenvalues --   -0.24669
 Alpha virt. eigenvalues --    0.00087   0.00405   0.08472   0.12848   0.14676
 Alpha virt. eigenvalues --    0.16402   0.17618   0.18819   0.19962   0.28796
 Alpha virt. eigenvalues --    0.30764   0.32490   0.34407   0.45894   0.52138

 Mulliken charges:
               1
     1  C   -0.085777
     2  C   -0.092228
     3  C   -0.087588
     4  C   -0.078802
     5  C   -0.091249
     6  C   -0.069729
     7  H    0.076830
     8  H    0.085004
     9  H    0.082903
    10  H    0.086083
    11  H    0.084070
    12  H    0.090482
 Sum of Mulliken charges =  -0.00000

 Dipole moment (field-independent basis, Debye):
    X=              0.0355    Y=              0.0833    Z=              0.1993  Tot=              0.2189
 Quadrupole moment (field-independent basis, Debye-Ang):
   XX=            -30.8891   YY=            -32.8104   ZZ=            -38.2020
   XY=              0.2253   XZ=              0.1745   YZ=             -0.2938

 Normal termination of Gaussian 16 at Fri Nov 10 17:17:38 2023.
