 Gaussian 16, Revision B.01,
 Gaussian 16:  EM64L-G16RevB.01 20-Dec-2017

 ---------------------------------
 # TD=(NStates=1) B3LYP/6-31G(d,p)
 ---------------------------------

 -------
 ABSSPCT
 -------
 Symbolic Z-matrix:
 Charge =  0 Multiplicity = 1

                         Standard orientation:
 ---------------------------------------------------------------------
 Center     Atomic      Atomic             Coordinates (Angstroms)
 Number     Number       Type             X           Y           Z
 ---------------------------------------------------------------------
      1          6           0       -1.412906   -0.305686   -0.015629
      2          6           0       -0.945469    0.979654    0.083774
      3          6           0        0.416474    1.329391   -0.048698
      4          6           0        1.329913    0.291980    0.018681
      5          6           0        1.002350   -0.995899   -0.025162
      6          6           0       -0.386621   -1.371310    0.009256
      7          1           0       -2.378238   -0.373705   -0.136893
      8          1           0       -0.906695   -2.372790   -0.072032
      9          1           0        1.836896   -1.645082    0.160589
     10          1           0        2.428861    0.581429   -0.022563
     11          1           0        0.670560    2.470302   -0.105523
     12          1           0       -1.673837    1.771062    0.043095
 ---------------------------------------------------------------------

 SCF Done:  E(RB3LYP) =  -232.211190257     A.U. after   14 cycles

 Excitation energies and oscillator strengths:

 Excited State   1:      Singlet-A      5.4093 eV  229.20 nm  f=0.0002  <S**2>=0.000
      20 -> 22         0.50370
      21 -> 23        -0.49375
 This state for optimization and/or second-order correction.
 Total Energy, E(TD-HF/TD-DFT) =  -232.012400382
 Copying the excited state density for this state as the 1-particle RhoCI density.

 The electronic state is 1-A.
 Alpha  occ. eigenvalues --  -10.20759 -10.19491 -10.18991 -10.18635 -10.18248
 Alpha  occ. eigenvalues --  -10.18154  -0.84794  -0.75512  -0.72687  -0.60855
 Alpha  occ. eigenvalues --   -0.59031  -0.51514  -0.45829  -0.43902  -0.42613
 Alpha  occ. eigenvalues --   -0.40397  -0.36088  -0.34011  -0.32615  -0.25589
 Alpha  occ. eigenvalues --   -0.23753
 Alpha virt. eigenvalues --   -0.01228   0.00860   0.08274   0.13210   0.14192
 Alpha virt. eigenvalues --    0.15470   0.15833   0.18516   0.20456   0.27397
 Alpha virt. eigenvalues --    0.30388   0.30855   0.33120   0.46256   0.49791

 Mulliken charges:
               1
     1  C   -0.055849
     2  C   -0.087797
     3  C   -0.080382
     4  C   -0.081489
     5  C   -0.074019
     6  C   -0.119858
     7  H    0.078961
     8  H    0.090405
     9  H    0.091998
    10  H    0.078399
    11  H    0.085416
    12  H    0.074214
 Sum of Mulliken charges =  -0.00000

 Dipole moment (field-independent basis, Debye):
    X=             -0.1527    Y=              0.1293    Z=             -0.0804  Tot=              0.2156
 Quadrupole moment (field-independent basis, Debye-Ang):
   XX=            -31.0321   YY=            -32.2998   ZZ=            -38.5481
   XY=              0.0508   XZ=              0.4817   YZ=             -0.2039

 Normal termination of Gaussian 16 at Fri Nov 10 19:04:59 2023.
