 Gaussian 16, Revision B.01,
 Gaussian 16:  EM64L-G16RevB.01 20-Dec-2017

 ---------------------------------
 # TD=(NStates=1) B3LYP/6-31G(d,p)
 ---------------------------------

 -------
 ABSSPCT
 -------
 Symbolic Z-matrix:
 Charge =  0 Multiplicity = 1

                         Standard orientation:
 ---------------------------------------------------------------------
 Center     Atomic      Atomic             Coordinates (Angstroms)
 Number     Number       Type             X           Y           Z
 ---------------------------------------------------------------------
      1          6           0       -1.493113    0.227138    0.014247
      2          6           0       -0.918963   -1.185750   -0.087994
      3          6           0        0.512503   -1.228767    0.066398
      4          6           0        1.433047   -0.171699    0.012834
      5          6           0        0.949908    1.063120   -0.022383
      6          6           0       -0.513265    1.281237    0.002180
      7          1           0       -2.574740    0.445478    0.141560
      8          1           0       -0.881110    2.448943   -0.019474
      9          1           0        1.361592    1.856162   -0.032631
     10          1           0        2.579315   -0.394385    0.008486
     11          1           0        1.129248   -2.219567   -0.070877
     12          1           0       -1.434998   -2.048304    0.061248
 ---------------------------------------------------------------------

 SCF Done:  E(RB3LYP) =  -232.160724006     A.U. after   14 cycles

 Excitation energies and oscillator strengths:

 Excited State   1:      Singlet-A      5.1060 eV  242.82 nm  f=0.0056  <S**2>=0.000
      20 -> 22         0.32290
      20 -> 23        -0.31765
      21 -> 22         0.43987
      21 -> 23         0.31790
 This state for optimization and/or second-order correction.
 Total Energy, E(TD-HF/TD-DFT) =  -231.973081359
 Copying the excited state density for this state as the 1-particle RhoCI density.

 The electronic state is 1-A.
 Alpha  occ. eigenvalues --  -10.21350 -10.21094 -10.20449 -10.20050 -10.19458
 Alpha  occ. eigenvalues --  -10.17486  -0.83717  -0.74331  -0.72531  -0.61788
 Alpha  occ. eigenvalues --   -0.57858  -0.51457  -0.47498  -0.42869  -0.42627
 Alpha  occ. eigenvalues --   -0.38519  -0.35520  -0.34476  -0.32401  -0.25008
 Alpha  occ. eigenvalues --   -0.23843
 Alpha virt. eigenvalues --   -0.01601  -0.00473   0.07792   0.11620   0.13832
 Alpha virt. eigenvalues --    0.14083   0.16622   0.16875   0.20278   0.26233
 Alpha virt. eigenvalues --    0.26452   0.29707   0.32536   0.46567   0.47879

 Mulliken charges:
               1
     1  C   -0.106800
     2  C   -0.093905
     3  C   -0.093322
     4  C   -0.077061
     5  C    0.004981
     6  C   -0.110132
     7  H    0.100311
     8  H    0.072699
     9  H    0.044922
    10  H    0.089210
    11  H    0.069414
    12  H    0.099683
 Sum of Mulliken charges =  -0.00000

 Dipole moment (field-independent basis, Debye):
    X=              0.0707    Y=              0.1415    Z=              0.0684  Tot=              0.1724
 Quadrupole moment (field-independent basis, Debye-Ang):
   XX=            -31.0451   YY=            -32.0654   ZZ=            -38.9543
   XY=              0.2479   XZ=             -0.4920   YZ=             -0.0292

 Normal termination of Gaussian 16 at Fri Nov 10 18:12:30 2023.
