 Gaussian 16, Revision B.01,
 Gaussian 16:  EM64L-G16RevB.01 20-Dec-2017

 ---------------------------------
 # TD=(NStates=1) B3LYP/6-31G(d,p)
 ---------------------------------

 -------
 ABSSPCT
 -------
 Symbolic Z-matrix:
 Charge =  0 Multiplicity = 1

                         Standard orientation:
 ---------------------------------------------------------------------
 Center     Atomic      Atomic             Coordinates (Angstroms)
 Number     Number       Type             X           Y           Z
 ---------------------------------------------------------------------
      1          6           0       -0.576246    1.311666   -0.073007
      2          6           0       -1.447615    0.126099    0.140788
      3          6           0       -0.852888   -1.098903   -0.066249
      4          6           0        0.590444   -1.288834    0.062762
      5          6           0        1.359831   -0.170889    0.031686
      6          6           0        0.809942    1.127101   -0.008211
      7          1           0       -0.654625    2.314210   -0.091516
      8          1           0        1.664920    1.881069    0.012795
      9          1           0        2.505937   -0.282975   -0.023508
     10          1           0        1.117834   -2.175885   -0.191748
     11          1           0       -1.382340   -2.148009   -0.180588
     12          1           0       -2.552532    0.374154   -0.052042
 ---------------------------------------------------------------------

 SCF Done:  E(RB3LYP) =  -232.194311454     A.U. after   13 cycles

 Excitation energies and oscillator strengths:

 Excited State   1:      Singlet-A      5.2564 eV  235.87 nm  f=0.0021  <S**2>=0.000
      20 -> 22        -0.36635
      20 -> 23         0.29867
      21 -> 22         0.38517
      21 -> 23         0.35709
 This state for optimization and/or second-order correction.
 Total Energy, E(TD-HF/TD-DFT) =  -232.001142152
 Copying the excited state density for this state as the 1-particle RhoCI density.

 The electronic state is 1-A.
 Alpha  occ. eigenvalues --  -10.21098 -10.20939 -10.19397 -10.19073 -10.18840
 Alpha  occ. eigenvalues --  -10.18662  -0.84303  -0.74195  -0.73755  -0.60777
 Alpha  occ. eigenvalues --   -0.58553  -0.50862  -0.45845  -0.43385  -0.41235
 Alpha  occ. eigenvalues --   -0.40388  -0.35747  -0.33636  -0.32327  -0.25080
 Alpha  occ. eigenvalues --   -0.24411
 Alpha virt. eigenvalues --   -0.01238  -0.00397   0.07869   0.11660   0.13504
 Alpha virt. eigenvalues --    0.14299   0.15279   0.17323   0.19734   0.27153
 Alpha virt. eigenvalues --    0.28836   0.30426   0.32613   0.44372   0.47941

 Mulliken charges:
               1
     1  C   -0.084856
     2  C   -0.109551
     3  C   -0.087168
     4  C   -0.082570
     5  C   -0.072112
     6  C   -0.089090
     7  H    0.094579
     8  H    0.084889
     9  H    0.072854
    10  H    0.091366
    11  H    0.085458
    12  H    0.096200
 Sum of Mulliken charges =  -0.00000

 Dipole moment (field-independent basis, Debye):
    X=              0.2733    Y=              0.0590    Z=             -0.3344  Tot=              0.4359
 Quadrupole moment (field-independent basis, Debye-Ang):
   XX=            -32.1282   YY=            -31.7074   ZZ=            -38.7833
   XY=             -0.0621   XZ=              0.1428   YZ=              0.4988

 Normal termination of Gaussian 16 at Fri Nov 10 16:15:49 2023.
