 Gaussian 16, Revision B.01,
 Gaussian 16:  EM64L-G16RevB.01 20-Dec-2017

 ---------------------------------
 # TD=(NStates=1) B3LYP/6-31G(d,p)
 ---------------------------------

 -------
 ABSSPCT
 -------
 Symbolic Z-matrix:
 Charge =  0 Multiplicity = 1

                         Standard orientation:
 ---------------------------------------------------------------------
 Center     Atomic      Atomic             Coordinates (Angstroms)
 Number     Number       Type             X           Y           Z
 ---------------------------------------------------------------------
      1          6           0       -0.510098    1.274297    0.002658
      2          6           0       -1.393093    0.191122    0.077200
      3          6           0       -0.845784   -1.006561   -0.039071
      4          6           0        0.502310   -1.321011   -0.078909
      5          6           0        1.350150   -0.198866    0.023253
      6          6           0        0.886494    1.066228   -0.002847
      7          1           0       -0.792640    2.405109   -0.078933
      8          1           0        1.650923    1.742892   -0.149516
      9          1           0        2.521479   -0.395881    0.150560
     10          1           0        0.868039   -2.361414    0.256730
     11          1           0       -1.768593   -1.617416   -0.113722
     12          1           0       -2.419089    0.195453    0.041177
 ---------------------------------------------------------------------

 SCF Done:  E(RB3LYP) =  -232.197701065     A.U. after   13 cycles

 Excitation energies and oscillator strengths:

 Excited State   1:      Singlet-A      5.5540 eV  223.23 nm  f=0.0021  <S**2>=0.000
      20 -> 22         0.52654
      21 -> 23        -0.45953
 This state for optimization and/or second-order correction.
 Total Energy, E(TD-HF/TD-DFT) =  -231.993595601
 Copying the excited state density for this state as the 1-particle RhoCI density.

 The electronic state is 1-A.
 Alpha  occ. eigenvalues --  -10.20221 -10.19495 -10.19440 -10.18121 -10.17936
 Alpha  occ. eigenvalues --  -10.17746  -0.86106  -0.76241  -0.73320  -0.61712
 Alpha  occ. eigenvalues --   -0.58249  -0.51922  -0.45994  -0.43462  -0.42073
 Alpha  occ. eigenvalues --   -0.40904  -0.36807  -0.33627  -0.32141  -0.25869
 Alpha  occ. eigenvalues --   -0.24302
 Alpha virt. eigenvalues --   -0.01261   0.01296   0.07694   0.12545   0.13095
 Alpha virt. eigenvalues --    0.14722   0.17355   0.18583   0.20975   0.29006
 Alpha virt. eigenvalues --    0.29940   0.32771   0.33237   0.44845   0.51946

 Mulliken charges:
               1
     1  C   -0.113190
     2  C   -0.057854
     3  C   -0.066698
     4  C   -0.103139
     5  C   -0.099609
     6  C   -0.047800
     7  H    0.077184
     8  H    0.087384
     9  H    0.072363
    10  H    0.093719
    11  H    0.071184
    12  H    0.086456
 Sum of Mulliken charges =  -0.00000

 Dipole moment (field-independent basis, Debye):
    X=             -0.1041    Y=              0.1300    Z=              0.0650  Tot=              0.1788
 Quadrupole moment (field-independent basis, Debye-Ang):
   XX=            -31.1772   YY=            -33.0543   ZZ=            -38.2966
   XY=              0.4186   XZ=              0.3590   YZ=             -0.8394

 Normal termination of Gaussian 16 at Fri Nov 10 18:14:12 2023.
