 Gaussian 16, Revision B.01,
 Gaussian 16:  EM64L-G16RevB.01 20-Dec-2017

 ---------------------------------
 # TD=(NStates=1) B3LYP/6-31G(d,p)
 ---------------------------------

 -------
 ABSSPCT
 -------
 Symbolic Z-matrix:
 Charge =  0 Multiplicity = 1

                         Standard orientation:
 ---------------------------------------------------------------------
 Center     Atomic      Atomic             Coordinates (Angstroms)
 Number     Number       Type             X           Y           Z
 ---------------------------------------------------------------------
      1          6           0       -1.338205   -0.457264   -0.059439
      2          6           0       -1.046259    0.896090    0.001435
      3          6           0        0.234986    1.346705    0.007410
      4          6           0        1.308109    0.449371   -0.032806
      5          6           0        1.065694   -0.894587    0.007913
      6          6           0       -0.244158   -1.331473   -0.017450
      7          1           0       -2.295697   -0.851259    0.064758
      8          1           0       -0.389284   -2.396942    0.136864
      9          1           0        1.920723   -1.557082    0.178805
     10          1           0        2.228248    0.828199   -0.086893
     11          1           0        0.632117    2.419837    0.106119
     12          1           0       -1.977108    1.504201    0.157969
 ---------------------------------------------------------------------

 SCF Done:  E(RB3LYP) =  -232.233271891     A.U. after   13 cycles

 Excitation energies and oscillator strengths:

 Excited State   1:      Singlet-A      5.6060 eV  221.16 nm  f=0.0014  <S**2>=0.000
      20 -> 22         0.45233
      20 -> 23         0.20655
      21 -> 22        -0.26536
      21 -> 23         0.42648
 This state for optimization and/or second-order correction.
 Total Energy, E(TD-HF/TD-DFT) =  -232.027255916
 Copying the excited state density for this state as the 1-particle RhoCI density.

 The electronic state is 1-A.
 Alpha  occ. eigenvalues --  -10.18959 -10.18867 -10.18409 -10.18328 -10.18175
 Alpha  occ. eigenvalues --  -10.17368  -0.85501  -0.75009  -0.73979  -0.60610
 Alpha  occ. eigenvalues --   -0.59713  -0.52048  -0.46219  -0.44629  -0.42100
 Alpha  occ. eigenvalues --   -0.40509  -0.36750  -0.34994  -0.32250  -0.25171
 Alpha  occ. eigenvalues --   -0.24547
 Alpha virt. eigenvalues --   -0.00080   0.00911   0.08792   0.13686   0.14341
 Alpha virt. eigenvalues --    0.16377   0.17381   0.19602   0.20643   0.29622
 Alpha virt. eigenvalues --    0.30643   0.32065   0.34101   0.46121   0.52305

 Mulliken charges:
               1
     1  C   -0.073087
     2  C   -0.096806
     3  C   -0.078734
     4  C   -0.069700
     5  C   -0.071615
     6  C   -0.098006
     7  H    0.088546
     8  H    0.077963
     9  H    0.083664
    10  H    0.075010
    11  H    0.080904
    12  H    0.081862
 Sum of Mulliken charges =  -0.00000

 Dipole moment (field-independent basis, Debye):
    X=              0.0937    Y=             -0.0820    Z=              0.3262  Tot=              0.3491
 Quadrupole moment (field-independent basis, Debye-Ang):
   XX=            -30.9564   YY=            -32.4788   ZZ=            -38.2126
   XY=              0.5305   XZ=             -0.2470   YZ=             -0.2249

 Normal termination of Gaussian 16 at Fri Nov 10 18:35:39 2023.
