 Gaussian 16, Revision B.01,
 Gaussian 16:  EM64L-G16RevB.01 20-Dec-2017

 ---------------------------------
 # TD=(NStates=1) B3LYP/6-31G(d,p)
 ---------------------------------

 -------
 ABSSPCT
 -------
 Symbolic Z-matrix:
 Charge =  0 Multiplicity = 1

                         Standard orientation:
 ---------------------------------------------------------------------
 Center     Atomic      Atomic             Coordinates (Angstroms)
 Number     Number       Type             X           Y           Z
 ---------------------------------------------------------------------
      1          6           0        1.238750    0.663724   -0.051824
      2          6           0       -0.015384    1.446475   -0.022783
      3          6           0       -1.241573    0.676535    0.050698
      4          6           0       -1.213334   -0.668705   -0.032536
      5          6           0       -0.006118   -1.367421   -0.004469
      6          6           0        1.230682   -0.734314   -0.003396
      7          1           0        2.240927    1.209953    0.138254
      8          1           0        2.106828   -1.154195    0.081142
      9          1           0       -0.044477   -2.442393    0.072740
     10          1           0       -2.091346   -1.384662    0.058205
     11          1           0       -2.196233    1.186203   -0.086421
     12          1           0        0.026165    2.487324    0.121930
 ---------------------------------------------------------------------

 SCF Done:  E(RB3LYP) =  -232.223351487     A.U. after   13 cycles

 Excitation energies and oscillator strengths:

 Excited State   1:      Singlet-A      5.3348 eV  232.41 nm  f=0.0005  <S**2>=0.000
      20 -> 22        -0.48295
      21 -> 23         0.50354
 This state for optimization and/or second-order correction.
 Total Energy, E(TD-HF/TD-DFT) =  -232.027300673
 Copying the excited state density for this state as the 1-particle RhoCI density.

 The electronic state is 1-A.
 Alpha  occ. eigenvalues --  -10.20059 -10.19860 -10.19216 -10.18827 -10.18591
 Alpha  occ. eigenvalues --  -10.17862  -0.84359  -0.74853  -0.72957  -0.60909
 Alpha  occ. eigenvalues --   -0.58794  -0.51927  -0.46473  -0.43660  -0.42477
 Alpha  occ. eigenvalues --   -0.40331  -0.35926  -0.34421  -0.32842  -0.25338
 Alpha  occ. eigenvalues --   -0.23834
 Alpha virt. eigenvalues --   -0.01050   0.00272   0.08981   0.13015   0.14798
 Alpha virt. eigenvalues --    0.15893   0.17396   0.18101   0.20051   0.27793
 Alpha virt. eigenvalues --    0.28849   0.30873   0.33070   0.46467   0.50018

 Mulliken charges:
               1
     1  C   -0.109510
     2  C   -0.096615
     3  C   -0.099598
     4  C   -0.065832
     5  C   -0.090583
     6  C   -0.039846
     7  H    0.079244
     8  H    0.076168
     9  H    0.080301
    10  H    0.084487
    11  H    0.087767
    12  H    0.094017
 Sum of Mulliken charges =  -0.00000

 Dipole moment (field-independent basis, Debye):
    X=              0.0895    Y=             -0.1032    Z=              0.2453  Tot=              0.2808
 Quadrupole moment (field-independent basis, Debye-Ang):
   XX=            -31.6624   YY=            -31.5063   ZZ=            -38.5629
   XY=              0.0251   XZ=              0.4743   YZ=              0.0272

 Normal termination of Gaussian 16 at Fri Nov 10 18:28:59 2023.
