 Gaussian 16, Revision B.01,
 Gaussian 16:  EM64L-G16RevB.01 20-Dec-2017

 ---------------------------------
 # TD=(NStates=1) B3LYP/6-31G(d,p)
 ---------------------------------

 -------
 ABSSPCT
 -------
 Symbolic Z-matrix:
 Charge =  0 Multiplicity = 1

                         Standard orientation:
 ---------------------------------------------------------------------
 Center     Atomic      Atomic             Coordinates (Angstroms)
 Number     Number       Type             X           Y           Z
 ---------------------------------------------------------------------
      1          6           0        1.361506    0.225504    0.023663
      2          6           0        0.929783   -1.095914   -0.018827
      3          6           0       -0.462363   -1.283156   -0.026477
      4          6           0       -1.410968   -0.242580   -0.008981
      5          6           0       -0.875120    1.123194    0.029049
      6          6           0        0.506886    1.268546    0.070279
      7          1           0        2.490913    0.450747   -0.177219
      8          1           0        0.844850    2.377292   -0.129164
      9          1           0       -1.571181    1.895293   -0.171993
     10          1           0       -2.558084   -0.488676   -0.131498
     11          1           0       -1.073756   -2.231338    0.251678
     12          1           0        1.568917   -1.976876   -0.054039
 ---------------------------------------------------------------------

 SCF Done:  E(RB3LYP) =  -232.215487151     A.U. after   13 cycles

 Excitation energies and oscillator strengths:

 Excited State   1:      Singlet-A      5.3333 eV  232.47 nm  f=0.0015  <S**2>=0.000
      20 -> 22         0.50827
      20 -> 23         0.12430
      21 -> 22         0.16375
      21 -> 23        -0.44569
 This state for optimization and/or second-order correction.
 Total Energy, E(TD-HF/TD-DFT) =  -232.019490742
 Copying the excited state density for this state as the 1-particle RhoCI density.

 The electronic state is 1-A.
 Alpha  occ. eigenvalues --  -10.20258 -10.19694 -10.19628 -10.19563 -10.19527
 Alpha  occ. eigenvalues --  -10.19336  -0.84814  -0.74015  -0.73664  -0.60603
 Alpha  occ. eigenvalues --   -0.57944  -0.50839  -0.45202  -0.44445  -0.41173
 Alpha  occ. eigenvalues --   -0.40386  -0.35966  -0.34551  -0.31691  -0.24954
 Alpha  occ. eigenvalues --   -0.24474
 Alpha virt. eigenvalues --   -0.01074   0.00153   0.07090   0.11433   0.13650
 Alpha virt. eigenvalues --    0.14763   0.16571   0.17252   0.18421   0.28528
 Alpha virt. eigenvalues --    0.28763   0.31312   0.32405   0.46838   0.51466

 Mulliken charges:
               1
     1  C   -0.085210
     2  C   -0.085529
     3  C   -0.086772
     4  C   -0.100888
     5  C   -0.087568
     6  C   -0.077596
     7  H    0.082737
     8  H    0.082124
     9  H    0.091311
    10  H    0.089124
    11  H    0.080339
    12  H    0.097927
 Sum of Mulliken charges =  -0.00000

 Dipole moment (field-independent basis, Debye):
    X=             -0.1041    Y=              0.0490    Z=             -0.2439  Tot=              0.2697
 Quadrupole moment (field-independent basis, Debye-Ang):
   XX=            -31.5612   YY=            -32.3335   ZZ=            -38.7244
   XY=             -0.2702   XZ=             -0.2127   YZ=             -0.8802

 Normal termination of Gaussian 16 at Fri Nov 10 17:42:11 2023.
