 Gaussian 16, Revision B.01,
 Gaussian 16:  EM64L-G16RevB.01 20-Dec-2017

 ---------------------------------
 # TD=(NStates=1) B3LYP/6-31G(d,p)
 ---------------------------------

 -------
 ABSSPCT
 -------
 Symbolic Z-matrix:
 Charge =  0 Multiplicity = 1

                         Standard orientation:
 ---------------------------------------------------------------------
 Center     Atomic      Atomic             Coordinates (Angstroms)
 Number     Number       Type             X           Y           Z
 ---------------------------------------------------------------------
      1          6           0       -0.379252   -1.371044    0.026214
      2          6           0       -1.412060   -0.361723    0.000756
      3          6           0       -1.038129    0.988727   -0.040941
      4          6           0        0.447896    1.319644    0.008091
      5          6           0        1.395245    0.329812   -0.054967
      6          6           0        0.997579   -0.974390   -0.022625
      7          1           0       -0.657265   -2.360202    0.161096
      8          1           0        1.868549   -1.592056    0.015362
      9          1           0        2.372507    0.575017    0.051093
     10          1           0        0.634007    2.518079    0.339508
     11          1           0       -1.848406    1.807743   -0.060800
     12          1           0       -2.437067   -0.534726   -0.005418
 ---------------------------------------------------------------------

 SCF Done:  E(RB3LYP) =  -232.206529650     A.U. after   13 cycles

 Excitation energies and oscillator strengths:

 Excited State   1:      Singlet-A      5.2501 eV  236.16 nm  f=0.0008  <S**2>=0.000
      20 -> 22         0.47891
      21 -> 23         0.51614
 This state for optimization and/or second-order correction.
 Total Energy, E(TD-HF/TD-DFT) =  -232.013591858
 Copying the excited state density for this state as the 1-particle RhoCI density.

 The electronic state is 1-A.
 Alpha  occ. eigenvalues --  -10.21097 -10.20438 -10.19555 -10.19195 -10.18986
 Alpha  occ. eigenvalues --  -10.17919  -0.83888  -0.75216  -0.71982  -0.60580
 Alpha  occ. eigenvalues --   -0.58922  -0.51290  -0.46222  -0.43858  -0.42340
 Alpha  occ. eigenvalues --   -0.40022  -0.35677  -0.34117  -0.32660  -0.25580
 Alpha  occ. eigenvalues --   -0.23227
 Alpha virt. eigenvalues --   -0.01498   0.00453   0.08002   0.12546   0.13906
 Alpha virt. eigenvalues --    0.14917   0.16392   0.18257   0.19702   0.26269
 Alpha virt. eigenvalues --    0.29403   0.30240   0.32019   0.47022   0.50597

 Mulliken charges:
               1
     1  C   -0.094477
     2  C   -0.072846
     3  C   -0.104424
     4  C   -0.094371
     5  C   -0.062793
     6  C   -0.081943
     7  H    0.088164
     8  H    0.085115
     9  H    0.088167
    10  H    0.071295
    11  H    0.089209
    12  H    0.088905
 Sum of Mulliken charges =  -0.00000

 Dipole moment (field-independent basis, Debye):
    X=             -0.0209    Y=             -0.1095    Z=              0.2859  Tot=              0.3069
 Quadrupole moment (field-independent basis, Debye-Ang):
   XX=            -30.5771   YY=            -32.4946   ZZ=            -38.7425
   XY=             -0.3128   XZ=              0.2690   YZ=              0.2102

 Normal termination of Gaussian 16 at Fri Nov 10 17:16:04 2023.
