 Gaussian 16, Revision B.01,
 Gaussian 16:  EM64L-G16RevB.01 20-Dec-2017

 ---------------------------------
 # TD=(NStates=1) B3LYP/6-31G(d,p)
 ---------------------------------

 -------
 ABSSPCT
 -------
 Symbolic Z-matrix:
 Charge =  0 Multiplicity = 1

                         Standard orientation:
 ---------------------------------------------------------------------
 Center     Atomic      Atomic             Coordinates (Angstroms)
 Number     Number       Type             X           Y           Z
 ---------------------------------------------------------------------
      1          6           0       -1.402000    0.266332    0.037630
      2          6           0       -0.397769    1.307016   -0.019513
      3          6           0        0.959474    1.038343   -0.048730
      4          6           0        1.427251   -0.271100    0.034117
      5          6           0        0.413444   -1.291336   -0.002351
      6          6           0       -1.002205   -1.088538   -0.034221
      7          1           0       -2.520830    0.534669    0.270772
      8          1           0       -1.560629   -1.885124   -0.217103
      9          1           0        1.047405   -2.190777    0.036279
     10          1           0        2.440237   -0.456985    0.207453
     11          1           0        1.544875    1.673136   -0.094626
     12          1           0       -0.940229    2.560775   -0.004365
 ---------------------------------------------------------------------

 SCF Done:  E(RB3LYP) =  -232.136414552     A.U. after   13 cycles

 Excitation energies and oscillator strengths:

 Excited State   1:      Singlet-A      5.2155 eV  237.72 nm  f=0.0057  <S**2>=0.000
      20 -> 22        -0.26833
      20 -> 23         0.34215
      21 -> 22         0.47774
      21 -> 23         0.28695
 This state for optimization and/or second-order correction.
 Total Energy, E(TD-HF/TD-DFT) =  -231.944747622
 Copying the excited state density for this state as the 1-particle RhoCI density.

 The electronic state is 1-A.
 Alpha  occ. eigenvalues --  -10.21547 -10.20854 -10.19465 -10.19361 -10.18693
 Alpha  occ. eigenvalues --  -10.16913  -0.84241  -0.75550  -0.72632  -0.61963
 Alpha  occ. eigenvalues --   -0.58839  -0.51532  -0.48357  -0.44206  -0.42847
 Alpha  occ. eigenvalues --   -0.37672  -0.36698  -0.34056  -0.31854  -0.25176
 Alpha  occ. eigenvalues --   -0.23868
 Alpha virt. eigenvalues --   -0.01044  -0.00220   0.05853   0.12127   0.13306
 Alpha virt. eigenvalues --    0.15163   0.16921   0.17557   0.21365   0.26910
 Alpha virt. eigenvalues --    0.29383   0.31063   0.32143   0.46337   0.50539

 Mulliken charges:
               1
     1  C   -0.107403
     2  C   -0.072791
     3  C    0.001044
     4  C   -0.098946
     5  C   -0.100238
     6  C   -0.062733
     7  H    0.091443
     8  H    0.092010
     9  H    0.081182
    10  H    0.093377
    11  H    0.031493
    12  H    0.051562
 Sum of Mulliken charges =  -0.00000

 Dipole moment (field-independent basis, Debye):
    X=              0.2525    Y=             -0.1707    Z=              0.0929  Tot=              0.3186
 Quadrupole moment (field-independent basis, Debye-Ang):
   XX=            -30.5746   YY=            -32.8013   ZZ=            -38.5967
   XY=              0.1557   XZ=              0.1008   YZ=              0.2179

 Normal termination of Gaussian 16 at Fri Nov 10 17:23:54 2023.
