 Gaussian 16, Revision B.01,
 Gaussian 16:  EM64L-G16RevB.01 20-Dec-2017

 ---------------------------------
 # TD=(NStates=1) B3LYP/6-31G(d,p)
 ---------------------------------

 -------
 ABSSPCT
 -------
 Symbolic Z-matrix:
 Charge =  0 Multiplicity = 1

                         Standard orientation:
 ---------------------------------------------------------------------
 Center     Atomic      Atomic             Coordinates (Angstroms)
 Number     Number       Type             X           Y           Z
 ---------------------------------------------------------------------
      1          6           0        0.701895   -1.107088   -0.000166
      2          6           0       -0.624123   -1.202096    0.037405
      3          6           0       -1.466410   -0.022623   -0.011450
      4          6           0       -0.729331    1.205012    0.000867
      5          6           0        0.641673    1.187486    0.008128
      6          6           0        1.419839   -0.033797   -0.049262
      7          1           0        1.351636   -2.036809    0.074938
      8          1           0        2.669237    0.029247   -0.024688
      9          1           0        1.328735    2.135831    0.185976
     10          1           0       -1.182410    2.126978   -0.095834
     11          1           0       -2.618066   -0.268434    0.020190
     12          1           0       -1.210391   -2.148175   -0.073721
 ---------------------------------------------------------------------

 SCF Done:  E(RB3LYP) =  -232.193013208     A.U. after   14 cycles

 Excitation energies and oscillator strengths:

 Excited State   1:      Singlet-A      5.5201 eV  224.60 nm  f=0.0070  <S**2>=0.000
      20 -> 22         0.48309
      20 -> 23         0.11944
      21 -> 22        -0.27133
      21 -> 23         0.42059
 This state for optimization and/or second-order correction.
 Total Energy, E(TD-HF/TD-DFT) =  -231.990151695
 Copying the excited state density for this state as the 1-particle RhoCI density.

 The electronic state is 1-A.
 Alpha  occ. eigenvalues --  -10.20867 -10.19901 -10.19776 -10.19018 -10.18905
 Alpha  occ. eigenvalues --  -10.17797  -0.85718  -0.75244  -0.73164  -0.59644
 Alpha  occ. eigenvalues --   -0.59152  -0.51226  -0.45010  -0.43870  -0.42017
 Alpha  occ. eigenvalues --   -0.39207  -0.36655  -0.35213  -0.31002  -0.25875
 Alpha  occ. eigenvalues --   -0.24021
 Alpha virt. eigenvalues --   -0.01164   0.01396   0.05774   0.10696   0.13162
 Alpha virt. eigenvalues --    0.16026   0.17184   0.17602   0.17987   0.26860
 Alpha virt. eigenvalues --    0.29168   0.32028   0.35530   0.45977   0.51312

 Mulliken charges:
               1
     1  C   -0.049741
     2  C   -0.090070
     3  C   -0.103001
     4  C   -0.083236
     5  C   -0.099368
     6  C   -0.078267
     7  H    0.070747
     8  H    0.085241
     9  H    0.077346
    10  H    0.088090
    11  H    0.096890
    12  H    0.085371
 Sum of Mulliken charges =  -0.00000

 Dipole moment (field-independent basis, Debye):
    X=             -0.0417    Y=             -0.0229    Z=              0.0313  Tot=              0.0570
 Quadrupole moment (field-independent basis, Debye-Ang):
   XX=            -30.9284   YY=            -32.8391   ZZ=            -38.6935
   XY=              0.5352   XZ=              0.3773   YZ=              0.1392

 Normal termination of Gaussian 16 at Fri Nov 10 17:48:12 2023.
