 Gaussian 16, Revision B.01,
 Gaussian 16:  EM64L-G16RevB.01 20-Dec-2017

 ---------------------------------
 # TD=(NStates=1) B3LYP/6-31G(d,p)
 ---------------------------------

 -------
 ABSSPCT
 -------
 Symbolic Z-matrix:
 Charge =  0 Multiplicity = 1

                         Standard orientation:
 ---------------------------------------------------------------------
 Center     Atomic      Atomic             Coordinates (Angstroms)
 Number     Number       Type             X           Y           Z
 ---------------------------------------------------------------------
      1          6           0        0.087149    1.360748   -0.017879
      2          6           0       -1.212156    0.777449    0.044453
      3          6           0       -1.290720   -0.654387   -0.026298
      4          6           0       -0.090719   -1.314826   -0.038517
      5          6           0        1.211175   -0.754177    0.073353
      6          6           0        1.267511    0.564061   -0.057408
      7          1           0        0.320997    2.430329    0.061116
      8          1           0        2.370512    1.244440   -0.108258
      9          1           0        2.144783   -1.450507    0.140167
     10          1           0       -0.217342   -2.480691    0.017076
     11          1           0       -2.244747   -1.025857   -0.105230
     12          1           0       -2.207643    1.409079    0.128900
 ---------------------------------------------------------------------

 SCF Done:  E(RB3LYP) =  -232.203821586     A.U. after   13 cycles

 Excitation energies and oscillator strengths:

 Excited State   1:      Singlet-A      5.4788 eV  226.30 nm  f=0.0028  <S**2>=0.000
      20 -> 22         0.41908
      20 -> 23         0.18824
      21 -> 22        -0.26556
      21 -> 23         0.46687
 This state for optimization and/or second-order correction.
 Total Energy, E(TD-HF/TD-DFT) =  -232.002480456
 Copying the excited state density for this state as the 1-particle RhoCI density.

 The electronic state is 1-A.
 Alpha  occ. eigenvalues --  -10.20643 -10.20571 -10.19910 -10.19843 -10.19557
 Alpha  occ. eigenvalues --  -10.18801  -0.85019  -0.74919  -0.72875  -0.59701
 Alpha  occ. eigenvalues --   -0.58675  -0.51120  -0.44715  -0.43507  -0.41917
 Alpha  occ. eigenvalues --   -0.40039  -0.36471  -0.33398  -0.32349  -0.25636
 Alpha  occ. eigenvalues --   -0.24220
 Alpha virt. eigenvalues --   -0.00518   0.00272   0.05577   0.11334   0.12336
 Alpha virt. eigenvalues --    0.15345   0.16013   0.17032   0.18131   0.27925
 Alpha virt. eigenvalues --    0.28143   0.31914   0.33525   0.45768   0.51543

 Mulliken charges:
               1
     1  C   -0.081850
     2  C   -0.104011
     3  C   -0.056051
     4  C   -0.106009
     5  C   -0.071193
     6  C   -0.076080
     7  H    0.088228
     8  H    0.062357
     9  H    0.095014
    10  H    0.071098
    11  H    0.092254
    12  H    0.086243
 Sum of Mulliken charges =  -0.00000

 Dipole moment (field-independent basis, Debye):
    X=             -0.1559    Y=             -0.0335    Z=              0.0905  Tot=              0.1833
 Quadrupole moment (field-independent basis, Debye-Ang):
   XX=            -31.2011   YY=            -32.5741   ZZ=            -38.9246
   XY=              0.0479   XZ=              0.0913   YZ=              0.0697

 Normal termination of Gaussian 16 at Fri Nov 10 19:28:09 2023.
