 Gaussian 16, Revision B.01,
 Gaussian 16:  EM64L-G16RevB.01 20-Dec-2017

 ---------------------------------
 # TD=(NStates=1) B3LYP/6-31G(d,p)
 ---------------------------------

 -------
 ABSSPCT
 -------
 Symbolic Z-matrix:
 Charge =  0 Multiplicity = 1

                         Standard orientation:
 ---------------------------------------------------------------------
 Center     Atomic      Atomic             Coordinates (Angstroms)
 Number     Number       Type             X           Y           Z
 ---------------------------------------------------------------------
      1          6           0        1.107008   -0.813508   -0.007906
      2          6           0       -0.188251   -1.395873   -0.072912
      3          6           0       -1.316527   -0.570475   -0.000331
      4          6           0       -1.086674    0.806996   -0.035313
      5          6           0        0.196832    1.426938   -0.030070
      6          6           0        1.286273    0.558593    0.043633
      7          1           0        2.042244   -1.533293   -0.011797
      8          1           0        2.463804    0.898239    0.116409
      9          1           0       -0.094936    2.524640    0.054219
     10          1           0       -2.001919    1.413240   -0.014303
     11          1           0       -2.246917   -0.980499    0.371393
     12          1           0       -0.154233   -2.398354    0.101470
 ---------------------------------------------------------------------

 SCF Done:  E(RB3LYP) =  -232.208292011     A.U. after   13 cycles

 Excitation energies and oscillator strengths:

 Excited State   1:      Singlet-A      5.3532 eV  231.61 nm  f=0.0022  <S**2>=0.000
      20 -> 22        -0.32122
      20 -> 23         0.35044
      21 -> 22         0.42427
      21 -> 23         0.30587
 This state for optimization and/or second-order correction.
 Total Energy, E(TD-HF/TD-DFT) =  -232.011566231
 Copying the excited state density for this state as the 1-particle RhoCI density.

 The electronic state is 1-A.
 Alpha  occ. eigenvalues --  -10.20822 -10.20264 -10.19830 -10.19026 -10.18902
 Alpha  occ. eigenvalues --  -10.18462  -0.84652  -0.74264  -0.73735  -0.60619
 Alpha  occ. eigenvalues --   -0.58622  -0.51021  -0.46236  -0.43560  -0.41230
 Alpha  occ. eigenvalues --   -0.40017  -0.36170  -0.33963  -0.32327  -0.25035
 Alpha  occ. eigenvalues --   -0.24418
 Alpha virt. eigenvalues --   -0.00786  -0.00007   0.06821   0.11979   0.13387
 Alpha virt. eigenvalues --    0.14679   0.15140   0.18616   0.19793   0.27149
 Alpha virt. eigenvalues --    0.30120   0.31278   0.32922   0.46135   0.50567

 Mulliken charges:
               1
     1  C   -0.081365
     2  C   -0.079779
     3  C   -0.079780
     4  C   -0.113565
     5  C   -0.066823
     6  C   -0.101626
     7  H    0.083146
     8  H    0.075188
     9  H    0.104111
    10  H    0.081949
    11  H    0.094389
    12  H    0.084153
 Sum of Mulliken charges =  -0.00000

 Dipole moment (field-independent basis, Debye):
    X=             -0.1992    Y=             -0.1004    Z=              0.3813  Tot=              0.4417
 Quadrupole moment (field-independent basis, Debye-Ang):
   XX=            -32.0400   YY=            -31.8409   ZZ=            -38.6775
   XY=             -0.9740   XZ=             -0.5387   YZ=             -0.3288

 Normal termination of Gaussian 16 at Fri Nov 10 19:21:35 2023.
