 Gaussian 16, Revision B.01,
 Gaussian 16:  EM64L-G16RevB.01 20-Dec-2017

 ---------------------------------
 # TD=(NStates=1) B3LYP/6-31G(d,p)
 ---------------------------------

 -------
 ABSSPCT
 -------
 Symbolic Z-matrix:
 Charge =  0 Multiplicity = 1

                         Standard orientation:
 ---------------------------------------------------------------------
 Center     Atomic      Atomic             Coordinates (Angstroms)
 Number     Number       Type             X           Y           Z
 ---------------------------------------------------------------------
      1          6           0       -0.660955   -1.200118   -0.035378
      2          6           0        0.761974   -1.161005   -0.007411
      3          6           0        1.360358    0.017269    0.051015
      4          6           0        0.648029    1.245394   -0.023797
      5          6           0       -0.722938    1.124648   -0.028342
      6          6           0       -1.398184   -0.037812    0.049933
      7          1           0       -1.261913   -2.092098   -0.138503
      8          1           0       -2.472161   -0.183003    0.293684
      9          1           0       -1.263581    2.029019   -0.135791
     10          1           0        1.080961    2.245486   -0.135714
     11          1           0        2.484222    0.071678    0.276651
     12          1           0        1.502764   -2.001337   -0.196449
 ---------------------------------------------------------------------

 SCF Done:  E(RB3LYP) =  -232.227266478     A.U. after   12 cycles

 Excitation energies and oscillator strengths:

 Excited State   1:      Singlet-A      5.5841 eV  222.03 nm  f=0.0006  <S**2>=0.000
      20 -> 22        -0.48829
      21 -> 22         0.12433
      21 -> 23         0.49050
 This state for optimization and/or second-order correction.
 Total Energy, E(TD-HF/TD-DFT) =  -232.022053948
 Copying the excited state density for this state as the 1-particle RhoCI density.

 The electronic state is 1-A.
 Alpha  occ. eigenvalues --  -10.18864 -10.18818 -10.18767 -10.18728 -10.18313
 Alpha  occ. eigenvalues --  -10.17688  -0.85785  -0.75264  -0.73821  -0.60634
 Alpha  occ. eigenvalues --   -0.58696  -0.52057  -0.45205  -0.44222  -0.41833
 Alpha  occ. eigenvalues --   -0.41061  -0.37502  -0.34376  -0.31790  -0.25533
 Alpha  occ. eigenvalues --   -0.24210
 Alpha virt. eigenvalues --   -0.00406   0.01056   0.08606   0.12476   0.14200
 Alpha virt. eigenvalues --    0.16809   0.17244   0.18478   0.19374   0.29264
 Alpha virt. eigenvalues --    0.30624   0.32118   0.34559   0.45379   0.51639

 Mulliken charges:
               1
     1  C   -0.110452
     2  C   -0.067274
     3  C   -0.098356
     4  C   -0.074073
     5  C   -0.091009
     6  C   -0.064715
     7  H    0.082754
     8  H    0.091121
     9  H    0.075300
    10  H    0.090336
    11  H    0.077637
    12  H    0.088732
 Sum of Mulliken charges =  -0.00000

 Dipole moment (field-independent basis, Debye):
    X=             -0.0788    Y=              0.0819    Z=             -0.0399  Tot=              0.1205
 Quadrupole moment (field-independent basis, Debye-Ang):
   XX=            -31.5994   YY=            -32.1163   ZZ=            -38.1857
   XY=              0.2878   XZ=             -0.1994   YZ=              0.0541

 Normal termination of Gaussian 16 at Fri Nov 10 18:06:01 2023.
