 Gaussian 16, Revision B.01,
 Gaussian 16:  EM64L-G16RevB.01 20-Dec-2017

 ---------------------------------
 # TD=(NStates=1) B3LYP/6-31G(d,p)
 ---------------------------------

 -------
 ABSSPCT
 -------
 Symbolic Z-matrix:
 Charge =  0 Multiplicity = 1

                         Standard orientation:
 ---------------------------------------------------------------------
 Center     Atomic      Atomic             Coordinates (Angstroms)
 Number     Number       Type             X           Y           Z
 ---------------------------------------------------------------------
      1          6           0       -0.846291    1.181452    0.008304
      2          6           0       -1.483528   -0.135014    0.041627
      3          6           0       -0.632943   -1.242154   -0.067538
      4          6           0        0.821242   -1.175312    0.010281
      5          6           0        1.473656    0.143324    0.009907
      6          6           0        0.619684    1.249027   -0.064006
      7          1           0       -1.468611    2.029938    0.004198
      8          1           0        1.220622    2.282859    0.136155
      9          1           0        2.566022    0.109236    0.046681
     10          1           0        1.460098   -2.041940    0.088441
     11          1           0       -0.974457   -2.240576    0.052607
     12          1           0       -2.514590   -0.267457    0.040467
 ---------------------------------------------------------------------

 SCF Done:  E(RB3LYP) =  -232.219465138     A.U. after   13 cycles

 Excitation energies and oscillator strengths:

 Excited State   1:      Singlet-A      5.0768 eV  244.22 nm  f=0.0013  <S**2>=0.000
      20 -> 22         0.47416
      20 -> 23        -0.10491
      21 -> 22         0.16575
      21 -> 23         0.48618
 This state for optimization and/or second-order correction.
 Total Energy, E(TD-HF/TD-DFT) =  -232.032897162
 Copying the excited state density for this state as the 1-particle RhoCI density.

 The electronic state is 1-A.
 Alpha  occ. eigenvalues --  -10.20999 -10.20404 -10.19915 -10.19882 -10.19672
 Alpha  occ. eigenvalues --  -10.19237  -0.82731  -0.73953  -0.72250  -0.60186
 Alpha  occ. eigenvalues --   -0.58870  -0.50734  -0.47104  -0.43655  -0.41431
 Alpha  occ. eigenvalues --   -0.39729  -0.35890  -0.34807  -0.31701  -0.24989
 Alpha  occ. eigenvalues --   -0.23446
 Alpha virt. eigenvalues --   -0.01729  -0.00265   0.08656   0.12833   0.14140
 Alpha virt. eigenvalues --    0.14571   0.16188   0.17843   0.18907   0.26969
 Alpha virt. eigenvalues --    0.27648   0.28750   0.30744   0.48006   0.48419

 Mulliken charges:
               1
     1  C   -0.098595
     2  C   -0.077979
     3  C   -0.086228
     4  C   -0.098623
     5  C   -0.076440
     6  C   -0.095030
     7  H    0.095075
     8  H    0.073145
     9  H    0.097183
    10  H    0.089904
    11  H    0.083412
    12  H    0.094175
 Sum of Mulliken charges =  -0.00000

 Dipole moment (field-independent basis, Debye):
    X=             -0.0217    Y=             -0.1967    Z=              0.2282  Tot=              0.3020
 Quadrupole moment (field-independent basis, Debye-Ang):
   XX=            -30.4282   YY=            -32.2951   ZZ=            -39.0661
   XY=             -0.6305   XZ=              0.2151   YZ=             -0.0199

 Normal termination of Gaussian 16 at Fri Nov 10 16:23:10 2023.
