 Gaussian 16, Revision B.01,
 Gaussian 16:  EM64L-G16RevB.01 20-Dec-2017

 ---------------------------------
 # TD=(NStates=1) B3LYP/6-31G(d,p)
 ---------------------------------

 -------
 ABSSPCT
 -------
 Symbolic Z-matrix:
 Charge =  0 Multiplicity = 1

                         Standard orientation:
 ---------------------------------------------------------------------
 Center     Atomic      Atomic             Coordinates (Angstroms)
 Number     Number       Type             X           Y           Z
 ---------------------------------------------------------------------
      1          6           0        0.434563    1.282933    0.041301
      2          6           0        1.396344    0.271321   -0.013880
      3          6           0        0.881192   -1.012901   -0.002616
      4          6           0       -0.411284   -1.346107   -0.026253
      5          6           0       -1.402161   -0.283191   -0.028327
      6          6           0       -0.970409    1.025886   -0.033374
      7          1           0        0.958208    2.269668   -0.004117
      8          1           0       -1.594692    2.046508    0.106041
      9          1           0       -2.339239   -0.471354    0.083530
     10          1           0       -0.654286   -2.301979    0.171847
     11          1           0        1.669918   -1.781884    0.063458
     12          1           0        2.390613    0.611396   -0.041862
 ---------------------------------------------------------------------

 SCF Done:  E(RB3LYP) =  -232.207800867     A.U. after   13 cycles

 Excitation energies and oscillator strengths:

 Excited State   1:      Singlet-A      5.5012 eV  225.38 nm  f=0.0015  <S**2>=0.000
      20 -> 22         0.48762
      20 -> 23         0.14213
      21 -> 22         0.19749
      21 -> 23        -0.45008
 This state for optimization and/or second-order correction.
 Total Energy, E(TD-HF/TD-DFT) =  -232.005636341
 Copying the excited state density for this state as the 1-particle RhoCI density.

 The electronic state is 1-A.
 Alpha  occ. eigenvalues --  -10.20178 -10.18852 -10.18479 -10.18151 -10.18035
 Alpha  occ. eigenvalues --  -10.18013  -0.84970  -0.74746  -0.74095  -0.61057
 Alpha  occ. eigenvalues --   -0.59471  -0.52004  -0.46633  -0.44611  -0.41724
 Alpha  occ. eigenvalues --   -0.40824  -0.36018  -0.35341  -0.31715  -0.25168
 Alpha  occ. eigenvalues --   -0.24380
 Alpha virt. eigenvalues --   -0.00626   0.00783   0.08695   0.12776   0.14657
 Alpha virt. eigenvalues --    0.15834   0.17958   0.19289   0.20207   0.28884
 Alpha virt. eigenvalues --    0.30056   0.31012   0.33500   0.45988   0.51728

 Mulliken charges:
               1
     1  C   -0.094392
     2  C   -0.062503
     3  C   -0.088355
     4  C   -0.066808
     5  C   -0.085970
     6  C   -0.082815
     7  H    0.075617
     8  H    0.083892
     9  H    0.077145
    10  H    0.083816
    11  H    0.071997
    12  H    0.088376
 Sum of Mulliken charges =  -0.00000

 Dipole moment (field-independent basis, Debye):
    X=              0.1147    Y=             -0.0259    Z=              0.2376  Tot=              0.2651
 Quadrupole moment (field-independent basis, Debye-Ang):
   XX=            -31.3945   YY=            -31.9207   ZZ=            -38.3399
   XY=              0.6848   XZ=             -0.4369   YZ=             -0.3329

 Normal termination of Gaussian 16 at Fri Nov 10 18:22:16 2023.
