 Gaussian 16, Revision B.01,
 Gaussian 16:  EM64L-G16RevB.01 20-Dec-2017

 ---------------------------------
 # TD=(NStates=1) B3LYP/6-31G(d,p)
 ---------------------------------

 -------
 ABSSPCT
 -------
 Symbolic Z-matrix:
 Charge =  0 Multiplicity = 1

                         Standard orientation:
 ---------------------------------------------------------------------
 Center     Atomic      Atomic             Coordinates (Angstroms)
 Number     Number       Type             X           Y           Z
 ---------------------------------------------------------------------
      1          6           0        0.637625   -1.207642   -0.008647
      2          6           0       -0.741301   -1.162167   -0.050143
      3          6           0       -1.485898    0.055591    0.092226
      4          6           0       -0.614381    1.214024   -0.033883
      5          6           0        0.782004    1.137077   -0.037475
      6          6           0        1.456616   -0.066526    0.042464
      7          1           0        1.089788   -2.147951   -0.014079
      8          1           0        2.525523   -0.168833    0.198986
      9          1           0        1.304181    2.128277   -0.119531
     10          1           0       -1.216572    1.989427   -0.034127
     11          1           0       -2.475230    0.240728    0.139214
     12          1           0       -1.435679   -1.863791   -0.197715
 ---------------------------------------------------------------------

 SCF Done:  E(RB3LYP) =  -232.204460120     A.U. after   13 cycles

 Excitation energies and oscillator strengths:

 Excited State   1:      Singlet-A      5.2889 eV  234.42 nm  f=0.0059  <S**2>=0.000
      20 -> 22        -0.31486
      20 -> 23        -0.33448
      21 -> 22         0.47393
      21 -> 23        -0.25226
 This state for optimization and/or second-order correction.
 Total Energy, E(TD-HF/TD-DFT) =  -232.010095175
 Copying the excited state density for this state as the 1-particle RhoCI density.

 The electronic state is 1-A.
 Alpha  occ. eigenvalues --  -10.19182 -10.19117 -10.18385 -10.18379 -10.18005
 Alpha  occ. eigenvalues --  -10.17667  -0.84322  -0.74609  -0.73774  -0.60730
 Alpha  occ. eigenvalues --   -0.60385  -0.52063  -0.47987  -0.44818  -0.42429
 Alpha  occ. eigenvalues --   -0.39945  -0.36742  -0.35242  -0.30930  -0.24501
 Alpha  occ. eigenvalues --   -0.24062
 Alpha virt. eigenvalues --   -0.00898   0.00737   0.10234   0.14535   0.15471
 Alpha virt. eigenvalues --    0.15822   0.17261   0.18377   0.21881   0.28287
 Alpha virt. eigenvalues --    0.28785   0.30514   0.33363   0.47042   0.52519

 Mulliken charges:
               1
     1  C   -0.088987
     2  C   -0.068867
     3  C   -0.098755
     4  C   -0.064607
     5  C   -0.090035
     6  C   -0.080011
     7  H    0.081957
     8  H    0.095690
     9  H    0.080479
    10  H    0.068342
    11  H    0.087023
    12  H    0.077772
 Sum of Mulliken charges =  -0.00000

 Dipole moment (field-independent basis, Debye):
    X=             -0.2009    Y=              0.0151    Z=             -0.0114  Tot=              0.2017
 Quadrupole moment (field-independent basis, Debye-Ang):
   XX=            -30.0934   YY=            -32.6334   ZZ=            -38.2898
   XY=             -0.5107   XZ=              0.2964   YZ=              0.0653

 Normal termination of Gaussian 16 at Fri Nov 10 19:30:40 2023.
