 Gaussian 16, Revision B.01,
 Gaussian 16:  EM64L-G16RevB.01 20-Dec-2017

 ---------------------------------
 # TD=(NStates=1) B3LYP/6-31G(d,p)
 ---------------------------------

 -------
 ABSSPCT
 -------
 Symbolic Z-matrix:
 Charge =  0 Multiplicity = 1

                         Standard orientation:
 ---------------------------------------------------------------------
 Center     Atomic      Atomic             Coordinates (Angstroms)
 Number     Number       Type             X           Y           Z
 ---------------------------------------------------------------------
      1          6           0        1.343699   -0.321984    0.019940
      2          6           0        0.913181    1.083453   -0.000993
      3          6           0       -0.445046    1.370811   -0.094557
      4          6           0       -1.368487    0.202206    0.022682
      5          6           0       -0.921299   -1.053361    0.047766
      6          6           0        0.429311   -1.305841   -0.059193
      7          1           0        2.442753   -0.536659   -0.162340
      8          1           0        0.978017   -2.136171   -0.054244
      9          1           0       -1.680667   -1.801350    0.217596
     10          1           0       -2.441649    0.617076   -0.113690
     11          1           0       -0.660757    2.257100    0.039940
     12          1           0        1.654155    1.748302    0.458874
 ---------------------------------------------------------------------

 SCF Done:  E(RB3LYP) =  -232.174811375     A.U. after   13 cycles

 Excitation energies and oscillator strengths:

 Excited State   1:      Singlet-A      5.3210 eV  233.01 nm  f=0.0006  <S**2>=0.000
      20 -> 22        -0.16549
      20 -> 23         0.45180
      21 -> 22         0.48932
      21 -> 23         0.16900
 This state for optimization and/or second-order correction.
 Total Energy, E(TD-HF/TD-DFT) =  -231.979268540
 Copying the excited state density for this state as the 1-particle RhoCI density.

 The electronic state is 1-A.
 Alpha  occ. eigenvalues --  -10.19953 -10.18858 -10.18773 -10.18738 -10.17792
 Alpha  occ. eigenvalues --  -10.17442  -0.85001  -0.75119  -0.74089  -0.61317
 Alpha  occ. eigenvalues --   -0.59127  -0.52150  -0.46822  -0.44870  -0.42372
 Alpha  occ. eigenvalues --   -0.40366  -0.36759  -0.33491  -0.31783  -0.24867
 Alpha  occ. eigenvalues --   -0.24493
 Alpha virt. eigenvalues --   -0.00641  -0.00445   0.09763   0.12354   0.14809
 Alpha virt. eigenvalues --    0.16134   0.16782   0.19226   0.20609   0.26658
 Alpha virt. eigenvalues --    0.30626   0.31508   0.32556   0.46576   0.49144

 Mulliken charges:
               1
     1  C   -0.118759
     2  C   -0.104203
     3  C   -0.055762
     4  C   -0.101366
     5  C   -0.077594
     6  C   -0.039160
     7  H    0.083244
     8  H    0.077554
     9  H    0.090966
    10  H    0.088611
    11  H    0.067451
    12  H    0.089018
 Sum of Mulliken charges =  -0.00000

 Dipole moment (field-independent basis, Debye):
    X=              0.0024    Y=             -0.0209    Z=              0.2411  Tot=              0.2420
 Quadrupole moment (field-independent basis, Debye-Ang):
   XX=            -31.6890   YY=            -32.0360   ZZ=            -38.0791
   XY=             -0.5853   XZ=              0.1620   YZ=              0.5067

 Normal termination of Gaussian 16 at Fri Nov 10 18:15:01 2023.
