 Gaussian 16, Revision B.01,
 Gaussian 16:  EM64L-G16RevB.01 20-Dec-2017

 ---------------------------------
 # TD=(NStates=1) B3LYP/6-31G(d,p)
 ---------------------------------

 -------
 ABSSPCT
 -------
 Symbolic Z-matrix:
 Charge =  0 Multiplicity = 1

                         Standard orientation:
 ---------------------------------------------------------------------
 Center     Atomic      Atomic             Coordinates (Angstroms)
 Number     Number       Type             X           Y           Z
 ---------------------------------------------------------------------
      1          6           0        0.985902    0.994074   -0.020083
      2          6           0        1.320742   -0.382950   -0.039358
      3          6           0        0.368270   -1.271113    0.009637
      4          6           0       -0.974414   -1.035406    0.048569
      5          6           0       -1.315187    0.375633   -0.045797
      6          6           0       -0.398568    1.344449   -0.020754
      7          1           0        1.727113    1.701350    0.205951
      8          1           0       -0.650985    2.336396    0.221694
      9          1           0       -2.466918    0.528707   -0.070235
     10          1           0       -1.573013   -1.805866    0.030063
     11          1           0        0.577046   -2.280641    0.054238
     12          1           0        2.466285   -0.628074   -0.034999
 ---------------------------------------------------------------------

 SCF Done:  E(RB3LYP) =  -232.207771245     A.U. after   14 cycles

 Excitation energies and oscillator strengths:

 Excited State   1:      Singlet-A      5.5610 eV  222.95 nm  f=0.0021  <S**2>=0.000
      20 -> 22         0.54162
      21 -> 23        -0.45172
 This state for optimization and/or second-order correction.
 Total Energy, E(TD-HF/TD-DFT) =  -232.003409339
 Copying the excited state density for this state as the 1-particle RhoCI density.

 The electronic state is 1-A.
 Alpha  occ. eigenvalues --  -10.19382 -10.18813 -10.18697 -10.18247 -10.17693
 Alpha  occ. eigenvalues --  -10.16719  -0.85620  -0.75563  -0.73753  -0.61540
 Alpha  occ. eigenvalues --   -0.59075  -0.52155  -0.46593  -0.44977  -0.42276
 Alpha  occ. eigenvalues --   -0.40131  -0.36741  -0.36103  -0.31147  -0.25792
 Alpha  occ. eigenvalues --   -0.23882
 Alpha virt. eigenvalues --   -0.01196   0.01784   0.09031   0.12962   0.15637
 Alpha virt. eigenvalues --    0.16225   0.17262   0.19328   0.21200   0.28157
 Alpha virt. eigenvalues --    0.30057   0.32065   0.35584   0.45925   0.52182

 Mulliken charges:
               1
     1  C   -0.108363
     2  C   -0.071962
     3  C   -0.067480
     4  C   -0.050716
     5  C   -0.102905
     6  C   -0.070970
     7  H    0.087960
     8  H    0.089157
     9  H    0.073022
    10  H    0.073640
    11  H    0.070115
    12  H    0.078502
 Sum of Mulliken charges =  -0.00000

 Dipole moment (field-independent basis, Debye):
    X=              0.0260    Y=             -0.1175    Z=              0.2652  Tot=              0.2913
 Quadrupole moment (field-independent basis, Debye-Ang):
   XX=            -31.9646   YY=            -31.4851   ZZ=            -38.1167
   XY=              0.7759   XZ=              0.2333   YZ=              0.6108

 Normal termination of Gaussian 16 at Fri Nov 10 18:29:46 2023.
