 Gaussian 16, Revision B.01,
 Gaussian 16:  EM64L-G16RevB.01 20-Dec-2017

 ---------------------------------
 # TD=(NStates=1) B3LYP/6-31G(d,p)
 ---------------------------------

 -------
 ABSSPCT
 -------
 Symbolic Z-matrix:
 Charge =  0 Multiplicity = 1

                         Standard orientation:
 ---------------------------------------------------------------------
 Center     Atomic      Atomic             Coordinates (Angstroms)
 Number     Number       Type             X           Y           Z
 ---------------------------------------------------------------------
      1          6           0        1.333877    0.375463    0.005791
      2          6           0        1.010557   -0.994750   -0.026662
      3          6           0       -0.345596   -1.259757   -0.026619
      4          6           0       -1.425454   -0.341042    0.013292
      5          6           0       -0.942807    0.975941   -0.040122
      6          6           0        0.380722    1.267369   -0.015215
      7          1           0        2.437688    0.491714   -0.061297
      8          1           0        0.669008    2.296691    0.229853
      9          1           0       -1.701110    1.847840    0.017721
     10          1           0       -2.466075   -0.754868    0.113114
     11          1           0       -0.727097   -2.282349    0.050122
     12          1           0        1.719795   -1.738370    0.187683
 ---------------------------------------------------------------------

 SCF Done:  E(RB3LYP) =  -232.220125657     A.U. after   14 cycles

 Excitation energies and oscillator strengths:

 Excited State   1:      Singlet-A      5.5757 eV  222.36 nm  f=0.0046  <S**2>=0.000
      20 -> 22         0.43396
      20 -> 23        -0.24446
      21 -> 22         0.34577
      21 -> 23         0.36273
 This state for optimization and/or second-order correction.
 Total Energy, E(TD-HF/TD-DFT) =  -232.015222130
 Copying the excited state density for this state as the 1-particle RhoCI density.

 The electronic state is 1-A.
 Alpha  occ. eigenvalues --  -10.19661 -10.19406 -10.18458 -10.18297 -10.18172
 Alpha  occ. eigenvalues --  -10.17622  -0.85960  -0.74750  -0.74228  -0.60439
 Alpha  occ. eigenvalues --   -0.59168  -0.52116  -0.45566  -0.44373  -0.42176
 Alpha  occ. eigenvalues --   -0.40704  -0.36988  -0.34430  -0.31447  -0.25159
 Alpha  occ. eigenvalues --   -0.24706
 Alpha virt. eigenvalues --   -0.00508   0.01141   0.07919   0.12949   0.14017
 Alpha virt. eigenvalues --    0.16199   0.17979   0.18277   0.19808   0.28310
 Alpha virt. eigenvalues --    0.29695   0.33051   0.34448   0.46002   0.50220

 Mulliken charges:
               1
     1  C   -0.091008
     2  C   -0.073542
     3  C   -0.097655
     4  C   -0.075519
     5  C   -0.105303
     6  C   -0.058657
     7  H    0.085471
     8  H    0.083693
     9  H    0.074223
    10  H    0.101094
    11  H    0.066326
    12  H    0.090877
 Sum of Mulliken charges =  -0.00000

 Dipole moment (field-independent basis, Debye):
    X=              0.0041    Y=             -0.1382    Z=              0.3282  Tot=              0.3561
 Quadrupole moment (field-independent basis, Debye-Ang):
   XX=            -31.0739   YY=            -32.6763   ZZ=            -38.2732
   XY=              0.0805   XZ=             -0.0160   YZ=             -0.0251

 Normal termination of Gaussian 16 at Fri Nov 10 16:08:57 2023.
