 Gaussian 16, Revision B.01,
 Gaussian 16:  EM64L-G16RevB.01 20-Dec-2017

 ---------------------------------
 # TD=(NStates=1) B3LYP/6-31G(d,p)
 ---------------------------------

 -------
 ABSSPCT
 -------
 Symbolic Z-matrix:
 Charge =  0 Multiplicity = 1

                         Standard orientation:
 ---------------------------------------------------------------------
 Center     Atomic      Atomic             Coordinates (Angstroms)
 Number     Number       Type             X           Y           Z
 ---------------------------------------------------------------------
      1          6           0        0.602164    1.210711    0.021238
      2          6           0       -0.688694    1.145096   -0.002551
      3          6           0       -1.412530   -0.094276   -0.011543
      4          6           0       -0.638626   -1.192729   -0.015412
      5          6           0        0.736783   -1.136662    0.051180
      6          6           0        1.422239    0.054219   -0.065905
      7          1           0        1.120125    2.192882    0.170450
      8          1           0        2.521114    0.023384   -0.134030
      9          1           0        1.257898   -2.076286    0.102748
     10          1           0       -1.220011   -2.082303    0.052305
     11          1           0       -2.433013    0.105871   -0.094442
     12          1           0       -1.374129    1.918294    0.040928
 ---------------------------------------------------------------------

 SCF Done:  E(RB3LYP) =  -232.221317105     A.U. after   13 cycles

 Excitation energies and oscillator strengths:

 Excited State   1:      Singlet-A      5.6916 eV  217.84 nm  f=0.0039  <S**2>=0.000
      20 -> 22         0.54341
      21 -> 22        -0.12060
      21 -> 23         0.42898
 This state for optimization and/or second-order correction.
 Total Energy, E(TD-HF/TD-DFT) =  -232.012154863
 Copying the excited state density for this state as the 1-particle RhoCI density.

 The electronic state is 1-A.
 Alpha  occ. eigenvalues --  -10.19122 -10.18270 -10.18198 -10.17758 -10.17649
 Alpha  occ. eigenvalues --  -10.16773  -0.85899  -0.74959  -0.74561  -0.60764
 Alpha  occ. eigenvalues --   -0.59838  -0.52365  -0.46438  -0.44765  -0.41870
 Alpha  occ. eigenvalues --   -0.40781  -0.37147  -0.35524  -0.31100  -0.25395
 Alpha  occ. eigenvalues --   -0.24481
 Alpha virt. eigenvalues --   -0.00406   0.01863   0.09211   0.14242   0.14597
 Alpha virt. eigenvalues --    0.16996   0.17482   0.18584   0.21500   0.28538
 Alpha virt. eigenvalues --    0.30996   0.31508   0.36332   0.45757   0.52383

 Mulliken charges:
               1
     1  C   -0.085609
     2  C   -0.066314
     3  C   -0.069396
     4  C   -0.087689
     5  C   -0.080614
     6  C   -0.095740
     7  H    0.076691
     8  H    0.093084
     9  H    0.081042
    10  H    0.077344
    11  H    0.085325
    12  H    0.071875
 Sum of Mulliken charges =  -0.00000

 Dipole moment (field-independent basis, Debye):
    X=             -0.0856    Y=              0.0034    Z=              0.0671  Tot=              0.1088
 Quadrupole moment (field-independent basis, Debye-Ang):
   XX=            -30.7513   YY=            -32.6122   ZZ=            -38.0613
   XY=             -0.5364   XZ=              0.0518   YZ=              0.0600

 Normal termination of Gaussian 16 at Fri Nov 10 17:49:07 2023.
