 Gaussian 16, Revision B.01,
 Gaussian 16:  EM64L-G16RevB.01 20-Dec-2017

 ---------------------------------
 # TD=(NStates=1) B3LYP/6-31G(d,p)
 ---------------------------------

 -------
 ABSSPCT
 -------
 Symbolic Z-matrix:
 Charge =  0 Multiplicity = 1

                         Standard orientation:
 ---------------------------------------------------------------------
 Center     Atomic      Atomic             Coordinates (Angstroms)
 Number     Number       Type             X           Y           Z
 ---------------------------------------------------------------------
      1          6           0       -0.505428    1.328334   -0.016118
      2          6           0        0.895442    1.111345   -0.022532
      3          6           0        1.384855   -0.240431   -0.024982
      4          6           0        0.486660   -1.349271    0.051596
      5          6           0       -0.899597   -1.091826    0.009146
      6          6           0       -1.359917    0.196294   -0.025444
      7          1           0       -0.989211    2.332476    0.152889
      8          1           0       -2.488261    0.499197   -0.042157
      9          1           0       -1.723899   -1.805233   -0.026814
     10          1           0        0.900799   -2.289911    0.027943
     11          1           0        2.647478   -0.316276   -0.148664
     12          1           0        1.641011    1.853078    0.206813
 ---------------------------------------------------------------------

 SCF Done:  E(RB3LYP) =  -232.218855614     A.U. after   12 cycles

 Excitation energies and oscillator strengths:

 Excited State   1:      Singlet-A      5.3074 eV  233.61 nm  f=0.0012  <S**2>=0.000
      20 -> 22         0.30958
      20 -> 23        -0.37095
      21 -> 22         0.42696
      21 -> 23         0.28951
 This state for optimization and/or second-order correction.
 Total Energy, E(TD-HF/TD-DFT) =  -232.023812467
 Copying the excited state density for this state as the 1-particle RhoCI density.

 The electronic state is 1-A.
 Alpha  occ. eigenvalues --  -10.21224 -10.19772 -10.19514 -10.19468 -10.19448
 Alpha  occ. eigenvalues --  -10.19330  -0.84136  -0.73991  -0.73271  -0.60702
 Alpha  occ. eigenvalues --   -0.57921  -0.51081  -0.45412  -0.44145  -0.41841
 Alpha  occ. eigenvalues --   -0.39660  -0.35734  -0.33754  -0.33143  -0.24777
 Alpha  occ. eigenvalues --   -0.24421
 Alpha virt. eigenvalues --   -0.00808  -0.00141   0.06931   0.11012   0.14328
 Alpha virt. eigenvalues --    0.14807   0.17263   0.17395   0.18164   0.27309
 Alpha virt. eigenvalues --    0.29984   0.30552   0.31727   0.47058   0.51811

 Mulliken charges:
               1
     1  C   -0.086065
     2  C   -0.087297
     3  C   -0.094073
     4  C   -0.089077
     5  C   -0.076416
     6  C   -0.085008
     7  H    0.088963
     8  H    0.079551
     9  H    0.092232
    10  H    0.091049
    11  H    0.073317
    12  H    0.092824
 Sum of Mulliken charges =  -0.00000

 Dipole moment (field-independent basis, Debye):
    X=             -0.0881    Y=              0.0054    Z=              0.1250  Tot=              0.1530
 Quadrupole moment (field-independent basis, Debye-Ang):
   XX=            -31.4554   YY=            -31.9953   ZZ=            -38.8874
   XY=             -0.0180   XZ=              0.0179   YZ=              0.6198

 Normal termination of Gaussian 16 at Fri Nov 10 19:05:38 2023.
