 Gaussian 16, Revision B.01,
 Gaussian 16:  EM64L-G16RevB.01 20-Dec-2017

 ---------------------------------
 # TD=(NStates=1) B3LYP/6-31G(d,p)
 ---------------------------------

 -------
 ABSSPCT
 -------
 Symbolic Z-matrix:
 Charge =  0 Multiplicity = 1

                         Standard orientation:
 ---------------------------------------------------------------------
 Center     Atomic      Atomic             Coordinates (Angstroms)
 Number     Number       Type             X           Y           Z
 ---------------------------------------------------------------------
      1          6           0       -1.272917   -0.540882    0.030901
      2          6           0       -0.216874   -1.356905   -0.032710
      3          6           0        1.110595   -0.806920   -0.027934
      4          6           0        1.312063    0.530671   -0.005619
      5          6           0        0.210665    1.328392   -0.011814
      6          6           0       -1.137635    0.823530   -0.013714
      7          1           0       -2.409074   -0.726425    0.038016
      8          1           0       -1.881805    1.365374   -0.072870
      9          1           0        0.157120    2.623485    0.121291
     10          1           0        2.385799    0.775441    0.101571
     11          1           0        2.058694   -1.476071    0.041412
     12          1           0       -0.346115   -2.429129    0.135923
 ---------------------------------------------------------------------

 SCF Done:  E(RB3LYP) =  -232.180283005     A.U. after   13 cycles

 Excitation energies and oscillator strengths:

 Excited State   1:      Singlet-A      5.6466 eV  219.57 nm  f=0.0006  <S**2>=0.000
      20 -> 22        -0.49402
      21 -> 23         0.49994
 This state for optimization and/or second-order correction.
 Total Energy, E(TD-HF/TD-DFT) =  -231.972775664
 Copying the excited state density for this state as the 1-particle RhoCI density.

 The electronic state is 1-A.
 Alpha  occ. eigenvalues --  -10.20869 -10.19758 -10.18931 -10.18884 -10.18675
 Alpha  occ. eigenvalues --  -10.17229  -0.85841  -0.76049  -0.73408  -0.61218
 Alpha  occ. eigenvalues --   -0.58921  -0.51961  -0.45821  -0.44874  -0.41535
 Alpha  occ. eigenvalues --   -0.39902  -0.36859  -0.35245  -0.30767  -0.26305
 Alpha  occ. eigenvalues --   -0.24091
 Alpha virt. eigenvalues --   -0.00890   0.01298   0.06336   0.11160   0.12788
 Alpha virt. eigenvalues --    0.16032   0.16316   0.18262   0.21433   0.27965
 Alpha virt. eigenvalues --    0.29924   0.32177   0.34807   0.45594   0.52076

 Mulliken charges:
               1
     1  C   -0.069277
     2  C   -0.100024
     3  C   -0.100866
     4  C   -0.059992
     5  C   -0.096271
     6  C   -0.025237
     7  H    0.078896
     8  H    0.056962
     9  H    0.050952
    10  H    0.093876
    11  H    0.084047
    12  H    0.086934
 Sum of Mulliken charges =  -0.00000

 Dipole moment (field-independent basis, Debye):
    X=             -0.0641    Y=             -0.1100    Z=              0.1967  Tot=              0.2343
 Quadrupole moment (field-independent basis, Debye-Ang):
   XX=            -30.7663   YY=            -33.2936   ZZ=            -38.4679
   XY=             -1.0611   XZ=              0.3036   YZ=             -0.1745

 Normal termination of Gaussian 16 at Fri Nov 10 17:28:20 2023.
