 Gaussian 16, Revision B.01,
 Gaussian 16:  EM64L-G16RevB.01 20-Dec-2017

 ---------------------------------
 # TD=(NStates=1) B3LYP/6-31G(d,p)
 ---------------------------------

 -------
 ABSSPCT
 -------
 Symbolic Z-matrix:
 Charge =  0 Multiplicity = 1

                         Standard orientation:
 ---------------------------------------------------------------------
 Center     Atomic      Atomic             Coordinates (Angstroms)
 Number     Number       Type             X           Y           Z
 ---------------------------------------------------------------------
      1          6           0        0.642655   -1.182865   -0.014620
      2          6           0       -0.750117   -1.175684   -0.039915
      3          6           0       -1.451747    0.042152    0.034297
      4          6           0       -0.663580    1.213931    0.015320
      5          6           0        0.797388    1.172183   -0.050081
      6          6           0        1.371434   -0.091430    0.064986
      7          1           0        1.375212   -2.166233    0.032515
      8          1           0        2.609721   -0.058961   -0.019901
      9          1           0        1.338148    2.186052   -0.091380
     10          1           0       -1.192245    2.281559    0.078853
     11          1           0       -2.541422    0.102721   -0.069679
     12          1           0       -1.265614   -2.214856    0.009677
 ---------------------------------------------------------------------

 SCF Done:  E(RB3LYP) =  -232.204045461     A.U. after   13 cycles

 Excitation energies and oscillator strengths:

 Excited State   1:      Singlet-A      5.4792 eV  226.28 nm  f=0.0022  <S**2>=0.000
      20 -> 22        -0.46012
      20 -> 23        -0.13882
      21 -> 22        -0.21256
      21 -> 23         0.47254
 This state for optimization and/or second-order correction.
 Total Energy, E(TD-HF/TD-DFT) =  -232.002687269
 Copying the excited state density for this state as the 1-particle RhoCI density.

 The electronic state is 1-A.
 Alpha  occ. eigenvalues --  -10.20703 -10.20286 -10.20261 -10.19934 -10.19733
 Alpha  occ. eigenvalues --  -10.19570  -0.85211  -0.74672  -0.72930  -0.59892
 Alpha  occ. eigenvalues --   -0.58126  -0.50446  -0.44851  -0.43240  -0.41605
 Alpha  occ. eigenvalues --   -0.39477  -0.36621  -0.33908  -0.31871  -0.25760
 Alpha  occ. eigenvalues --   -0.24294
 Alpha virt. eigenvalues --   -0.00921   0.00432   0.05424   0.11099   0.12124
 Alpha virt. eigenvalues --    0.15476   0.15775   0.16312   0.16674   0.27626
 Alpha virt. eigenvalues --    0.29694   0.31198   0.33138   0.45812   0.51235

 Mulliken charges:
               1
     1  C   -0.066259
     2  C   -0.103289
     3  C   -0.079434
     4  C   -0.103957
     5  C   -0.085394
     6  C   -0.069501
     7  H    0.077846
     8  H    0.071053
     9  H    0.093963
    10  H    0.077786
    11  H    0.098370
    12  H    0.088816
 Sum of Mulliken charges =  -0.00000

 Dipole moment (field-independent basis, Debye):
    X=             -0.0865    Y=              0.1180    Z=             -0.0420  Tot=              0.1522
 Quadrupole moment (field-independent basis, Debye-Ang):
   XX=            -31.7706   YY=            -32.1647   ZZ=            -39.0400
   XY=              0.2087   XZ=             -0.0498   YZ=             -0.1227

 Normal termination of Gaussian 16 at Fri Nov 10 17:19:07 2023.
