 Gaussian 16, Revision B.01,
 Gaussian 16:  EM64L-G16RevB.01 20-Dec-2017

 ---------------------------------
 # TD=(NStates=1) B3LYP/6-31G(d,p)
 ---------------------------------

 -------
 ABSSPCT
 -------
 Symbolic Z-matrix:
 Charge =  0 Multiplicity = 1

                         Standard orientation:
 ---------------------------------------------------------------------
 Center     Atomic      Atomic             Coordinates (Angstroms)
 Number     Number       Type             X           Y           Z
 ---------------------------------------------------------------------
      1          6           0        1.316363   -0.638004   -0.007785
      2          6           0        0.104552   -1.320649    0.023353
      3          6           0       -1.169715   -0.773468   -0.005209
      4          6           0       -1.320423    0.619465   -0.050624
      5          6           0       -0.054534    1.366455    0.018811
      6          6           0        1.208800    0.762105   -0.006052
      7          1           0        2.317742   -1.011798   -0.008138
      8          1           0        2.023892    1.338010   -0.012518
      9          1           0       -0.251987    2.443974   -0.032356
     10          1           0       -2.428529    1.011502    0.291113
     11          1           0       -2.216175   -1.393049   -0.179370
     12          1           0        0.044796   -2.484069    0.106303
 ---------------------------------------------------------------------

 SCF Done:  E(RB3LYP) =  -232.202557993     A.U. after   13 cycles

 Excitation energies and oscillator strengths:

 Excited State   1:      Singlet-A      5.2740 eV  235.09 nm  f=0.0061  <S**2>=0.000
      20 -> 22        -0.38283
      20 -> 23        -0.26407
      21 -> 22         0.40312
      21 -> 23        -0.34747
 This state for optimization and/or second-order correction.
 Total Energy, E(TD-HF/TD-DFT) =  -232.008741690
 Copying the excited state density for this state as the 1-particle RhoCI density.

 The electronic state is 1-A.
 Alpha  occ. eigenvalues --  -10.20614 -10.20156 -10.19810 -10.19730 -10.19523
 Alpha  occ. eigenvalues --  -10.18558  -0.84491  -0.74614  -0.72936  -0.59829
 Alpha  occ. eigenvalues --   -0.59229  -0.51056  -0.45432  -0.44055  -0.41152
 Alpha  occ. eigenvalues --   -0.40074  -0.36398  -0.34192  -0.31633  -0.25180
 Alpha  occ. eigenvalues --   -0.24229
 Alpha virt. eigenvalues --   -0.01403   0.00186   0.06497   0.12099   0.13362
 Alpha virt. eigenvalues --    0.15425   0.15970   0.16321   0.19168   0.27684
 Alpha virt. eigenvalues --    0.29151   0.30266   0.32780   0.46717   0.50001

 Mulliken charges:
               1
     1  C   -0.072657
     2  C   -0.090907
     3  C   -0.073680
     4  C   -0.102784
     5  C   -0.100215
     6  C   -0.068988
     7  H    0.096928
     8  H    0.082417
     9  H    0.086150
    10  H    0.089088
    11  H    0.080726
    12  H    0.073922
 Sum of Mulliken charges =  -0.00000

 Dipole moment (field-independent basis, Debye):
    X=              0.2047    Y=              0.0704    Z=              0.1014  Tot=              0.2391
 Quadrupole moment (field-independent basis, Debye-Ang):
   XX=            -30.5822   YY=            -33.0719   ZZ=            -38.8000
   XY=              0.1618   XZ=             -0.3213   YZ=              0.1540

 Normal termination of Gaussian 16 at Fri Nov 10 17:33:27 2023.
