 Gaussian 16, Revision B.01,
 Gaussian 16:  EM64L-G16RevB.01 20-Dec-2017

 ---------------------------------
 # TD=(NStates=1) B3LYP/6-31G(d,p)
 ---------------------------------

 -------
 ABSSPCT
 -------
 Symbolic Z-matrix:
 Charge =  0 Multiplicity = 1

                         Standard orientation:
 ---------------------------------------------------------------------
 Center     Atomic      Atomic             Coordinates (Angstroms)
 Number     Number       Type             X           Y           Z
 ---------------------------------------------------------------------
      1          6           0        0.896639    1.031963   -0.011147
      2          6           0        1.382937   -0.196276    0.047998
      3          6           0        0.538518   -1.295160   -0.075043
      4          6           0       -0.909362   -1.037731    0.001783
      5          6           0       -1.384502    0.204614   -0.061711
      6          6           0       -0.485442    1.323760   -0.012917
      7          1           0        1.709408    1.911012    0.077758
      8          1           0       -0.964781    2.335240    0.102409
      9          1           0       -2.571007    0.347478    0.198755
     10          1           0       -1.639191   -1.956128    0.122509
     11          1           0        0.828365   -2.296735    0.225187
     12          1           0        2.404481   -0.527890   -0.060389
 ---------------------------------------------------------------------

 SCF Done:  E(RB3LYP) =  -232.205371895     A.U. after   13 cycles

 Excitation energies and oscillator strengths:

 Excited State   1:      Singlet-A      5.4759 eV  226.42 nm  f=0.0038  <S**2>=0.000
      20 -> 22         0.51460
      21 -> 22         0.13960
      21 -> 23         0.45970
 This state for optimization and/or second-order correction.
 Total Energy, E(TD-HF/TD-DFT) =  -232.004135513
 Copying the excited state density for this state as the 1-particle RhoCI density.

 The electronic state is 1-A.
 Alpha  occ. eigenvalues --  -10.20427 -10.19939 -10.19897 -10.19676 -10.19188
 Alpha  occ. eigenvalues --  -10.18432  -0.85280  -0.75288  -0.72952  -0.60608
 Alpha  occ. eigenvalues --   -0.58030  -0.50831  -0.44983  -0.44100  -0.41260
 Alpha  occ. eigenvalues --   -0.39943  -0.36611  -0.34527  -0.31415  -0.26272
 Alpha  occ. eigenvalues --   -0.23943
 Alpha virt. eigenvalues --   -0.01905   0.01251   0.06445   0.11374   0.13524
 Alpha virt. eigenvalues --    0.14386   0.15937   0.17543   0.18667   0.27352
 Alpha virt. eigenvalues --    0.30031   0.30801   0.33945   0.46324   0.48863

 Mulliken charges:
               1
     1  C   -0.079000
     2  C   -0.067639
     3  C   -0.106268
     4  C   -0.084557
     5  C   -0.075447
     6  C   -0.098764
     7  H    0.074106
     8  H    0.098406
     9  H    0.074636
    10  H    0.079456
    11  H    0.091383
    12  H    0.093689
 Sum of Mulliken charges =  -0.00000

 Dipole moment (field-independent basis, Debye):
    X=              0.0182    Y=             -0.0593    Z=              0.3855  Tot=              0.3904
 Quadrupole moment (field-independent basis, Debye-Ang):
   XX=            -32.0132   YY=            -32.1295   ZZ=            -38.6768
   XY=             -0.4389   XZ=             -0.5010   YZ=             -0.2411

 Normal termination of Gaussian 16 at Fri Nov 10 19:10:21 2023.
