 Gaussian 16, Revision B.01,
 Gaussian 16:  EM64L-G16RevB.01 20-Dec-2017

 ---------------------------------
 # TD=(NStates=1) B3LYP/6-31G(d,p)
 ---------------------------------

 -------
 ABSSPCT
 -------
 Symbolic Z-matrix:
 Charge =  0 Multiplicity = 1

                         Standard orientation:
 ---------------------------------------------------------------------
 Center     Atomic      Atomic             Coordinates (Angstroms)
 Number     Number       Type             X           Y           Z
 ---------------------------------------------------------------------
      1          6           0        1.390798    0.356636   -0.010005
      2          6           0        0.315115    1.338584   -0.023235
      3          6           0       -1.033242    0.949095   -0.052084
      4          6           0       -1.329172   -0.386008    0.006877
      5          6           0       -0.385670   -1.348601    0.045462
      6          6           0        1.020867   -0.932124    0.035288
      7          1           0        2.495058    0.587614   -0.131231
      8          1           0        1.806385   -1.520214   -0.091055
      9          1           0       -0.542304   -2.353137   -0.015208
     10          1           0       -2.390652   -0.577563   -0.210363
     11          1           0       -1.944170    1.624848    0.217611
     12          1           0        0.703505    2.372960    0.216430
 ---------------------------------------------------------------------

 SCF Done:  E(RB3LYP) =  -232.208978491     A.U. after   13 cycles

 Excitation energies and oscillator strengths:

 Excited State   1:      Singlet-A      5.4202 eV  228.74 nm  f=0.0001  <S**2>=0.000
      20 -> 22         0.51068
      21 -> 23         0.48848
 This state for optimization and/or second-order correction.
 Total Energy, E(TD-HF/TD-DFT) =  -232.009788958
 Copying the excited state density for this state as the 1-particle RhoCI density.

 The electronic state is 1-A.
 Alpha  occ. eigenvalues --  -10.19886 -10.19412 -10.19063 -10.18581 -10.18330
 Alpha  occ. eigenvalues --  -10.17671  -0.84937  -0.75501  -0.73129  -0.61417
 Alpha  occ. eigenvalues --   -0.58329  -0.51766  -0.45836  -0.44483  -0.41750
 Alpha  occ. eigenvalues --   -0.41103  -0.36131  -0.33474  -0.33009  -0.25494
 Alpha  occ. eigenvalues --   -0.24001
 Alpha virt. eigenvalues --   -0.01143   0.00712   0.08498   0.12499   0.14745
 Alpha virt. eigenvalues --    0.15712   0.16741   0.18602   0.20298   0.28404
 Alpha virt. eigenvalues --    0.28934   0.32196   0.33206   0.45970   0.50940

 Mulliken charges:
               1
     1  C   -0.090412
     2  C   -0.106349
     3  C   -0.087689
     4  C   -0.080520
     5  C   -0.067841
     6  C   -0.068828
     7  H    0.089581
     8  H    0.072574
     9  H    0.083508
    10  H    0.084756
    11  H    0.088179
    12  H    0.083041
 Sum of Mulliken charges =  -0.00000

 Dipole moment (field-independent basis, Debye):
    X=              0.1584    Y=             -0.2168    Z=             -0.0130  Tot=              0.2688
 Quadrupole moment (field-independent basis, Debye-Ang):
   XX=            -30.8969   YY=            -32.6976   ZZ=            -38.3295
   XY=             -0.1244   XZ=             -0.2414   YZ=              0.8850

 Normal termination of Gaussian 16 at Fri Nov 10 19:02:29 2023.
