 Gaussian 16, Revision B.01,
 Gaussian 16:  EM64L-G16RevB.01 20-Dec-2017

 ---------------------------------
 # TD=(NStates=1) B3LYP/6-31G(d,p)
 ---------------------------------

 -------
 ABSSPCT
 -------
 Symbolic Z-matrix:
 Charge =  0 Multiplicity = 1

                         Standard orientation:
 ---------------------------------------------------------------------
 Center     Atomic      Atomic             Coordinates (Angstroms)
 Number     Number       Type             X           Y           Z
 ---------------------------------------------------------------------
      1          6           0       -0.235158    1.397534   -0.013044
      2          6           0        1.064192    0.884569    0.031256
      3          6           0        1.361309   -0.458663    0.008110
      4          6           0        0.209751   -1.370612   -0.040898
      5          6           0       -1.080182   -0.888241   -0.005062
      6          6           0       -1.350556    0.475392   -0.008391
      7          1           0       -0.400646    2.455345   -0.188021
      8          1           0       -2.258683    0.785523    0.224585
      9          1           0       -1.729520   -1.594838    0.043996
     10          1           0        0.187890   -2.389535    0.010265
     11          1           0        2.486632   -1.048378    0.043716
     12          1           0        1.898195    1.552010    0.033637
 ---------------------------------------------------------------------

 SCF Done:  E(RB3LYP) =  -232.196476087     A.U. after   13 cycles

 Excitation energies and oscillator strengths:

 Excited State   1:      Singlet-A      5.3532 eV  231.61 nm  f=0.0009  <S**2>=0.000
      20 -> 22         0.51444
      21 -> 23        -0.47638
 This state for optimization and/or second-order correction.
 Total Energy, E(TD-HF/TD-DFT) =  -231.999749623
 Copying the excited state density for this state as the 1-particle RhoCI density.

 The electronic state is 1-A.
 Alpha  occ. eigenvalues --  -10.21136 -10.19454 -10.18840 -10.18224 -10.18187
 Alpha  occ. eigenvalues --  -10.16965  -0.84325  -0.75293  -0.73140  -0.61084
 Alpha  occ. eigenvalues --   -0.59416  -0.52042  -0.46806  -0.43747  -0.42284
 Alpha  occ. eigenvalues --   -0.40730  -0.35954  -0.34391  -0.32806  -0.25364
 Alpha  occ. eigenvalues --   -0.23648
 Alpha virt. eigenvalues --   -0.01376   0.00942   0.07792   0.13201   0.15153
 Alpha virt. eigenvalues --    0.15533   0.17588   0.18187   0.21950   0.28227
 Alpha virt. eigenvalues --    0.29426   0.30891   0.32495   0.46919   0.51537

 Mulliken charges:
               1
     1  C   -0.097070
     2  C   -0.084750
     3  C   -0.085513
     4  C   -0.083332
     5  C   -0.047427
     6  C   -0.084207
     7  H    0.092063
     8  H    0.082172
     9  H    0.065341
    10  H    0.076306
    11  H    0.080633
    12  H    0.085786
 Sum of Mulliken charges =  -0.00000

 Dipole moment (field-independent basis, Debye):
    X=             -0.1642    Y=             -0.0943    Z=              0.1081  Tot=              0.2181
 Quadrupole moment (field-independent basis, Debye-Ang):
   XX=            -31.8423   YY=            -31.1082   ZZ=            -38.4262
   XY=              0.2091   XZ=             -0.3183   YZ=             -0.3341

 Normal termination of Gaussian 16 at Fri Nov 10 16:58:30 2023.
