 Gaussian 16, Revision B.01,
 Gaussian 16:  EM64L-G16RevB.01 20-Dec-2017

 ---------------------------------
 # TD=(NStates=1) B3LYP/6-31G(d,p)
 ---------------------------------

 -------
 ABSSPCT
 -------
 Symbolic Z-matrix:
 Charge =  0 Multiplicity = 1

                         Standard orientation:
 ---------------------------------------------------------------------
 Center     Atomic      Atomic             Coordinates (Angstroms)
 Number     Number       Type             X           Y           Z
 ---------------------------------------------------------------------
      1          6           0        0.460921    1.315559   -0.058387
      2          6           0        1.329362    0.293792   -0.015712
      3          6           0        0.934944   -0.979117    0.040603
      4          6           0       -0.432551   -1.367689    0.023836
      5          6           0       -1.413504   -0.320550   -0.061454
      6          6           0       -0.916148    1.058689    0.040723
      7          1           0        0.754765    2.391645    0.151999
      8          1           0       -1.768944    1.902902    0.147859
      9          1           0       -2.353228   -0.525493   -0.090002
     10          1           0       -0.729987   -2.354818    0.053410
     11          1           0        1.799470   -1.723699   -0.002033
     12          1           0        2.519781    0.305361   -0.078889
 ---------------------------------------------------------------------

 SCF Done:  E(RB3LYP) =  -232.202088003     A.U. after   13 cycles

 Excitation energies and oscillator strengths:

 Excited State   1:      Singlet-A      5.3995 eV  229.62 nm  f=0.0014  <S**2>=0.000
      20 -> 22         0.29131
      20 -> 23         0.36737
      21 -> 22         0.43051
      21 -> 23        -0.30725
 This state for optimization and/or second-order correction.
 Total Energy, E(TD-HF/TD-DFT) =  -232.003660589
 Copying the excited state density for this state as the 1-particle RhoCI density.

 The electronic state is 1-A.
 Alpha  occ. eigenvalues --  -10.20802 -10.19280 -10.19181 -10.18840 -10.18827
 Alpha  occ. eigenvalues --  -10.18722  -0.84961  -0.74613  -0.73460  -0.60708
 Alpha  occ. eigenvalues --   -0.59077  -0.51548  -0.45698  -0.44107  -0.42066
 Alpha  occ. eigenvalues --   -0.40208  -0.36313  -0.33419  -0.33014  -0.25048
 Alpha  occ. eigenvalues --   -0.24416
 Alpha virt. eigenvalues --   -0.00449  -0.00079   0.06875   0.12038   0.14406
 Alpha virt. eigenvalues --    0.15835   0.16710   0.18458   0.19358   0.27853
 Alpha virt. eigenvalues --    0.29888   0.31021   0.32956   0.46700   0.50870

 Mulliken charges:
               1
     1  C   -0.100607
     2  C   -0.054532
     3  C   -0.075821
     4  C   -0.087005
     5  C   -0.067818
     6  C   -0.100615
     7  H    0.088183
     8  H    0.082120
     9  H    0.074120
    10  H    0.086694
    11  H    0.077620
    12  H    0.077659
 Sum of Mulliken charges =  -0.00000

 Dipole moment (field-independent basis, Debye):
    X=             -0.1633    Y=             -0.1918    Z=              0.1000  Tot=              0.2710
 Quadrupole moment (field-independent basis, Debye-Ang):
   XX=            -31.3545   YY=            -32.1144   ZZ=            -38.6364
   XY=             -0.1797   XZ=             -0.1159   YZ=              0.4553

 Normal termination of Gaussian 16 at Fri Nov 10 19:10:41 2023.
