 Gaussian 16, Revision B.01,
 Gaussian 16:  EM64L-G16RevB.01 20-Dec-2017

 ---------------------------------
 # TD=(NStates=1) B3LYP/6-31G(d,p)
 ---------------------------------

 -------
 ABSSPCT
 -------
 Symbolic Z-matrix:
 Charge =  0 Multiplicity = 1

                         Standard orientation:
 ---------------------------------------------------------------------
 Center     Atomic      Atomic             Coordinates (Angstroms)
 Number     Number       Type             X           Y           Z
 ---------------------------------------------------------------------
      1          6           0       -0.578871   -1.269542    0.041052
      2          6           0       -1.439447   -0.171070   -0.033152
      3          6           0       -0.874212    1.086787   -0.032914
      4          6           0        0.536536    1.290206    0.032700
      5          6           0        1.422303    0.171027   -0.021986
      6          6           0        0.863554   -1.092747   -0.084791
      7          1           0       -0.892441   -2.310638    0.104751
      8          1           0        1.492720   -1.845822    0.070592
      9          1           0        2.531670    0.120138    0.248904
     10          1           0        1.082316    2.206793   -0.028299
     11          1           0       -1.367513    1.972806    0.071504
     12          1           0       -2.425926   -0.231231    0.127089
 ---------------------------------------------------------------------

 SCF Done:  E(RB3LYP) =  -232.215344099     A.U. after   13 cycles

 Excitation energies and oscillator strengths:

 Excited State   1:      Singlet-A      5.2870 eV  234.51 nm  f=0.0007  <S**2>=0.000
      20 -> 22         0.47908
      21 -> 23         0.51460
 This state for optimization and/or second-order correction.
 Total Energy, E(TD-HF/TD-DFT) =  -232.021051618
 Copying the excited state density for this state as the 1-particle RhoCI density.

 The electronic state is 1-A.
 Alpha  occ. eigenvalues --  -10.19529 -10.19094 -10.19016 -10.18540 -10.18344
 Alpha  occ. eigenvalues --  -10.17795  -0.84181  -0.75033  -0.73148  -0.60744
 Alpha  occ. eigenvalues --   -0.59828  -0.52164  -0.46950  -0.43547  -0.42707
 Alpha  occ. eigenvalues --   -0.40837  -0.35892  -0.33951  -0.33221  -0.25153
 Alpha  occ. eigenvalues --   -0.23766
 Alpha virt. eigenvalues --   -0.00905   0.00039   0.09951   0.13665   0.15008
 Alpha virt. eigenvalues --    0.15594   0.17520   0.19001   0.20917   0.28260
 Alpha virt. eigenvalues --    0.30164   0.30722   0.31350   0.46692   0.51547

 Mulliken charges:
               1
     1  C   -0.100916
     2  C   -0.062762
     3  C   -0.082788
     4  C   -0.098877
     5  C   -0.094190
     6  C   -0.068356
     7  H    0.085609
     8  H    0.075760
     9  H    0.086415
    10  H    0.088972
    11  H    0.085804
    12  H    0.085330
 Sum of Mulliken charges =  -0.00000

 Dipole moment (field-independent basis, Debye):
    X=              0.0015    Y=             -0.0482    Z=              0.3701  Tot=              0.3732
 Quadrupole moment (field-independent basis, Debye-Ang):
   XX=            -31.2633   YY=            -31.7939   ZZ=            -38.3720
   XY=             -0.3428   XZ=              0.1485   YZ=             -0.2757

 Normal termination of Gaussian 16 at Fri Nov 10 17:08:38 2023.
