 Gaussian 16, Revision B.01,
 Gaussian 16:  EM64L-G16RevB.01 20-Dec-2017

 ---------------------------------
 # TD=(NStates=1) B3LYP/6-31G(d,p)
 ---------------------------------

 -------
 ABSSPCT
 -------
 Symbolic Z-matrix:
 Charge =  0 Multiplicity = 1

                         Standard orientation:
 ---------------------------------------------------------------------
 Center     Atomic      Atomic             Coordinates (Angstroms)
 Number     Number       Type             X           Y           Z
 ---------------------------------------------------------------------
      1          6           0       -1.387098    0.106486   -0.087406
      2          6           0       -0.640323    1.287707    0.063412
      3          6           0        0.795556    1.090663    0.012992
      4          6           0        1.378257   -0.121295   -0.010878
      5          6           0        0.602026   -1.237941   -0.015640
      6          6           0       -0.775918   -1.139867    0.002892
      7          1           0       -2.461013    0.171918   -0.026912
      8          1           0       -1.477551   -1.982585    0.214435
      9          1           0        0.955385   -2.215202    0.127671
     10          1           0        2.525325   -0.165796   -0.147061
     11          1           0        1.448358    1.915256    0.064563
     12          1           0       -0.825503    2.361890   -0.024924
 ---------------------------------------------------------------------

 SCF Done:  E(RB3LYP) =  -232.228811676     A.U. after   13 cycles

 Excitation energies and oscillator strengths:

 Excited State   1:      Singlet-A      5.5103 eV  225.00 nm  f=0.0015  <S**2>=0.000
      20 -> 22         0.46490
      20 -> 23         0.16644
      21 -> 22        -0.22592
      21 -> 23         0.45241
 This state for optimization and/or second-order correction.
 Total Energy, E(TD-HF/TD-DFT) =  -232.026312006
 Copying the excited state density for this state as the 1-particle RhoCI density.

 The electronic state is 1-A.
 Alpha  occ. eigenvalues --  -10.19484 -10.18987 -10.18811 -10.18541 -10.18041
 Alpha  occ. eigenvalues --  -10.17939  -0.85312  -0.74655  -0.74000  -0.60682
 Alpha  occ. eigenvalues --   -0.59204  -0.51900  -0.46357  -0.43532  -0.41610
 Alpha  occ. eigenvalues --   -0.41194  -0.36386  -0.34496  -0.32511  -0.25274
 Alpha  occ. eigenvalues --   -0.24371
 Alpha virt. eigenvalues --   -0.00486   0.00638   0.08707   0.13333   0.14168
 Alpha virt. eigenvalues --    0.16020   0.17387   0.19018   0.19670   0.28304
 Alpha virt. eigenvalues --    0.30884   0.32175   0.33436   0.45719   0.51445

 Mulliken charges:
               1
     1  C   -0.104525
     2  C   -0.078180
     3  C   -0.096341
     4  C   -0.064775
     5  C   -0.084065
     6  C   -0.080409
     7  H    0.082596
     8  H    0.089107
     9  H    0.083055
    10  H    0.079688
    11  H    0.078268
    12  H    0.095581
 Sum of Mulliken charges =  -0.00000

 Dipole moment (field-independent basis, Debye):
    X=              0.0468    Y=              0.0360    Z=              0.1225  Tot=              0.1360
 Quadrupole moment (field-independent basis, Debye-Ang):
   XX=            -32.0205   YY=            -31.4724   ZZ=            -38.3485
   XY=              0.5138   XZ=             -0.3300   YZ=             -0.5419

 Normal termination of Gaussian 16 at Fri Nov 10 19:06:27 2023.
