 Gaussian 16, Revision B.01,
 Gaussian 16:  EM64L-G16RevB.01 20-Dec-2017

 ---------------------------------
 # TD=(NStates=1) B3LYP/6-31G(d,p)
 ---------------------------------

 -------
 ABSSPCT
 -------
 Symbolic Z-matrix:
 Charge =  0 Multiplicity = 1

                         Standard orientation:
 ---------------------------------------------------------------------
 Center     Atomic      Atomic             Coordinates (Angstroms)
 Number     Number       Type             X           Y           Z
 ---------------------------------------------------------------------
      1          6           0       -1.402906    0.094947   -0.025897
      2          6           0       -0.824386   -1.124996    0.042521
      3          6           0        0.584624   -1.211611   -0.017759
      4          6           0        1.378620   -0.136070   -0.010092
      5          6           0        0.852095    1.136636    0.019563
      6          6           0       -0.602295    1.256765   -0.040599
      7          1           0       -2.462820    0.061995   -0.060333
      8          1           0       -1.280790    2.213889    0.100716
      9          1           0        1.488274    2.063143    0.120890
     10          1           0        2.530202   -0.276181   -0.049746
     11          1           0        1.132575   -2.256245   -0.030073
     12          1           0       -1.321960   -1.900631    0.112116
 ---------------------------------------------------------------------

 SCF Done:  E(RB3LYP) =  -232.203164490     A.U. after   13 cycles

 Excitation energies and oscillator strengths:

 Excited State   1:      Singlet-A      5.5476 eV  223.49 nm  f=0.0011  <S**2>=0.000
      20 -> 22        -0.48904
      21 -> 22        -0.12366
      21 -> 23         0.48982
 This state for optimization and/or second-order correction.
 Total Energy, E(TD-HF/TD-DFT) =  -231.999293972
 Copying the excited state density for this state as the 1-particle RhoCI density.

 The electronic state is 1-A.
 Alpha  occ. eigenvalues --  -10.20443 -10.20143 -10.19030 -10.18913 -10.18221
 Alpha  occ. eigenvalues --  -10.16856  -0.85252  -0.75525  -0.73057  -0.61108
 Alpha  occ. eigenvalues --   -0.58717  -0.51780  -0.46127  -0.43981  -0.42276
 Alpha  occ. eigenvalues --   -0.39767  -0.36447  -0.34372  -0.32718  -0.25736
 Alpha  occ. eigenvalues --   -0.23998
 Alpha virt. eigenvalues --   -0.00768   0.01084   0.07597   0.12379   0.14516
 Alpha virt. eigenvalues --    0.15450   0.16476   0.17643   0.20927   0.28727
 Alpha virt. eigenvalues --    0.30146   0.31611   0.33355   0.46231   0.52377

 Mulliken charges:
               1
     1  C   -0.079196
     2  C   -0.026066
     3  C   -0.090090
     4  C   -0.066756
     5  C   -0.102507
     6  C   -0.107853
     7  H    0.084792
     8  H    0.083763
     9  H    0.093071
    10  H    0.082979
    11  H    0.073016
    12  H    0.054846
 Sum of Mulliken charges =  -0.00000

 Dipole moment (field-independent basis, Debye):
    X=             -0.1334    Y=             -0.1477    Z=              0.1334  Tot=              0.2396
 Quadrupole moment (field-independent basis, Debye-Ang):
   XX=            -31.0996   YY=            -32.3009   ZZ=            -38.5109
   XY=              0.3301   XZ=             -0.0979   YZ=              0.2669

 Normal termination of Gaussian 16 at Fri Nov 10 18:57:21 2023.
