 Gaussian 16, Revision B.01,
 Gaussian 16:  EM64L-G16RevB.01 20-Dec-2017

 ---------------------------------
 # TD=(NStates=1) B3LYP/6-31G(d,p)
 ---------------------------------

 -------
 ABSSPCT
 -------
 Symbolic Z-matrix:
 Charge =  0 Multiplicity = 1

                         Standard orientation:
 ---------------------------------------------------------------------
 Center     Atomic      Atomic             Coordinates (Angstroms)
 Number     Number       Type             X           Y           Z
 ---------------------------------------------------------------------
      1          6           0       -0.783026    1.144903   -0.044851
      2          6           0       -1.386585   -0.125348   -0.022605
      3          6           0       -0.597184   -1.245267    0.027334
      4          6           0        0.770745   -1.152426   -0.048850
      5          6           0        1.430583    0.088036    0.065237
      6          6           0        0.601017    1.222970   -0.051449
      7          1           0       -1.480734    2.048289    0.077397
      8          1           0        1.076538    2.186645    0.090719
      9          1           0        2.439864    0.280203    0.150407
     10          1           0        1.484745   -1.831080   -0.131561
     11          1           0       -1.148337   -2.189357    0.054857
     12          1           0       -2.585375   -0.091900    0.209281
 ---------------------------------------------------------------------

 SCF Done:  E(RB3LYP) =  -232.215767765     A.U. after   13 cycles

 Excitation energies and oscillator strengths:

 Excited State   1:      Singlet-A      5.4664 eV  226.81 nm  f=0.0005  <S**2>=0.000
      20 -> 22         0.49971
      21 -> 22        -0.12916
      21 -> 23         0.47256
 This state for optimization and/or second-order correction.
 Total Energy, E(TD-HF/TD-DFT) =  -232.014879446
 Copying the excited state density for this state as the 1-particle RhoCI density.

 The electronic state is 1-A.
 Alpha  occ. eigenvalues --  -10.19756 -10.19238 -10.18909 -10.18478 -10.18411
 Alpha  occ. eigenvalues --  -10.18080  -0.85103  -0.74419  -0.74187  -0.60626
 Alpha  occ. eigenvalues --   -0.59378  -0.51862  -0.46219  -0.44293  -0.41610
 Alpha  occ. eigenvalues --   -0.40779  -0.36333  -0.34352  -0.32248  -0.24936
 Alpha  occ. eigenvalues --   -0.24508
 Alpha virt. eigenvalues --   -0.00400   0.00433   0.07676   0.13424   0.14526
 Alpha virt. eigenvalues --    0.15376   0.17415   0.18134   0.20203   0.28753
 Alpha virt. eigenvalues --    0.30134   0.31497   0.33918   0.46342   0.52356

 Mulliken charges:
               1
     1  C   -0.079040
     2  C   -0.088088
     3  C   -0.080798
     4  C   -0.069176
     5  C   -0.086662
     6  C   -0.089055
     7  H    0.085323
     8  H    0.076058
     9  H    0.089572
    10  H    0.077980
    11  H    0.087319
    12  H    0.076568
 Sum of Mulliken charges =  -0.00000

 Dipole moment (field-independent basis, Debye):
    X=              0.2124    Y=              0.0421    Z=              0.2497  Tot=              0.3305
 Quadrupole moment (field-independent basis, Debye-Ang):
   XX=            -30.9232   YY=            -32.5637   ZZ=            -38.4098
   XY=             -0.1408   XZ=             -0.3338   YZ=              0.4439

 Normal termination of Gaussian 16 at Fri Nov 10 17:26:10 2023.
