 Gaussian 16, Revision B.01,
 Gaussian 16:  EM64L-G16RevB.01 20-Dec-2017

 ---------------------------------
 # TD=(NStates=1) B3LYP/6-31G(d,p)
 ---------------------------------

 -------
 ABSSPCT
 -------
 Symbolic Z-matrix:
 Charge =  0 Multiplicity = 1

                         Standard orientation:
 ---------------------------------------------------------------------
 Center     Atomic      Atomic             Coordinates (Angstroms)
 Number     Number       Type             X           Y           Z
 ---------------------------------------------------------------------
      1          6           0        0.278785   -1.343288   -0.028702
      2          6           0        1.310615   -0.424091   -0.001552
      3          6           0        1.043433    0.938865   -0.045886
      4          6           0       -0.266121    1.332701    0.103948
      5          6           0       -1.333219    0.363594   -0.079084
      6          6           0       -1.035455   -0.923820    0.042417
      7          1           0        0.498113   -2.323015    0.016949
      8          1           0       -1.901657   -1.353554    0.096491
      9          1           0       -2.336499    0.832419   -0.137899
     10          1           0       -0.597024    2.443737    0.085632
     11          1           0        1.924004    1.593747   -0.135345
     12          1           0        2.424839   -0.857099    0.127327
 ---------------------------------------------------------------------

 SCF Done:  E(RB3LYP) =  -232.198799852     A.U. after   13 cycles

 Excitation energies and oscillator strengths:

 Excited State   1:      Singlet-A      5.4658 eV  226.84 nm  f=0.0003  <S**2>=0.000
      20 -> 22         0.50515
      21 -> 22         0.10314
      21 -> 23        -0.47831
 This state for optimization and/or second-order correction.
 Total Energy, E(TD-HF/TD-DFT) =  -231.997934832
 Copying the excited state density for this state as the 1-particle RhoCI density.

 The electronic state is 1-A.
 Alpha  occ. eigenvalues --  -10.19539 -10.19471 -10.18912 -10.18468 -10.17868
 Alpha  occ. eigenvalues --  -10.16870  -0.85664  -0.75682  -0.73571  -0.61235
 Alpha  occ. eigenvalues --   -0.58699  -0.52368  -0.46657  -0.43592  -0.42014
 Alpha  occ. eigenvalues --   -0.40563  -0.36366  -0.34505  -0.32782  -0.25113
 Alpha  occ. eigenvalues --   -0.24068
 Alpha virt. eigenvalues --   -0.00410   0.00778   0.07991   0.12771   0.15135
 Alpha virt. eigenvalues --    0.15794   0.17073   0.18830   0.19889   0.28519
 Alpha virt. eigenvalues --    0.31550   0.32074   0.33894   0.45269   0.51325

 Mulliken charges:
               1
     1  C   -0.075347
     2  C   -0.089716
     3  C   -0.075221
     4  C   -0.098663
     5  C   -0.104538
     6  C   -0.032374
     7  H    0.078217
     8  H    0.070638
     9  H    0.086370
    10  H    0.073877
    11  H    0.088890
    12  H    0.077868
 Sum of Mulliken charges =  -0.00000

 Dipole moment (field-independent basis, Debye):
    X=             -0.1315    Y=             -0.0329    Z=              0.0341  Tot=              0.1398
 Quadrupole moment (field-independent basis, Debye-Ang):
   XX=            -31.0986   YY=            -32.4444   ZZ=            -38.2842
   XY=             -0.2780   XZ=              0.0723   YZ=             -0.3652

 Normal termination of Gaussian 16 at Fri Nov 10 16:50:21 2023.
