 Gaussian 16, Revision B.01,
 Gaussian 16:  EM64L-G16RevB.01 20-Dec-2017

 ---------------------------------
 # TD=(NStates=1) B3LYP/6-31G(d,p)
 ---------------------------------

 -------
 ABSSPCT
 -------
 Symbolic Z-matrix:
 Charge =  0 Multiplicity = 1

                         Standard orientation:
 ---------------------------------------------------------------------
 Center     Atomic      Atomic             Coordinates (Angstroms)
 Number     Number       Type             X           Y           Z
 ---------------------------------------------------------------------
      1          6           0       -0.493308   -1.274776   -0.041048
      2          6           0       -1.362734   -0.238982    0.039636
      3          6           0       -0.892680    1.044536    0.055931
      4          6           0        0.446520    1.282866   -0.070753
      5          6           0        1.370087    0.235354    0.017127
      6          6           0        0.896423   -1.036095   -0.025910
      7          1           0       -0.853024   -2.262084    0.075339
      8          1           0        1.504831   -1.846034    0.058535
      9          1           0        2.465358    0.312540    0.160378
     10          1           0        0.943688    2.242049   -0.015666
     11          1           0       -1.532074    1.849252   -0.014745
     12          1           0       -2.314622   -0.373140   -0.113741
 ---------------------------------------------------------------------

 SCF Done:  E(RB3LYP) =  -232.223825997     A.U. after   12 cycles

 Excitation energies and oscillator strengths:

 Excited State   1:      Singlet-A      5.6150 eV  220.81 nm  f=0.0000  <S**2>=0.000
      20 -> 22        -0.49901
      21 -> 23         0.50044
 This state for optimization and/or second-order correction.
 Total Energy, E(TD-HF/TD-DFT) =  -232.017479908
 Copying the excited state density for this state as the 1-particle RhoCI density.

 The electronic state is 1-A.
 Alpha  occ. eigenvalues --  -10.18308 -10.18208 -10.17697 -10.17547 -10.17302
 Alpha  occ. eigenvalues --  -10.16673  -0.85792  -0.75367  -0.74307  -0.60729
 Alpha  occ. eigenvalues --   -0.60388  -0.53026  -0.46799  -0.44071  -0.42863
 Alpha  occ. eigenvalues --   -0.41471  -0.36503  -0.34270  -0.33612  -0.25099
 Alpha  occ. eigenvalues --   -0.24507
 Alpha virt. eigenvalues --    0.00198   0.00762   0.10164   0.15212   0.15517
 Alpha virt. eigenvalues --    0.16716   0.18360   0.19889   0.21177   0.30279
 Alpha virt. eigenvalues --    0.31525   0.32928   0.33271   0.46046   0.52419

 Mulliken charges:
               1
     1  C   -0.090020
     2  C   -0.058166
     3  C   -0.078440
     4  C   -0.092903
     5  C   -0.084502
     6  C   -0.067791
     7  H    0.078809
     8  H    0.073920
     9  H    0.084993
    10  H    0.080406
    11  H    0.080211
    12  H    0.073483
 Sum of Mulliken charges =  -0.00000

 Dipole moment (field-independent basis, Debye):
    X=              0.0064    Y=             -0.0743    Z=              0.0899  Tot=              0.1168
 Quadrupole moment (field-independent basis, Debye-Ang):
   XX=            -31.2608   YY=            -31.9318   ZZ=            -37.9044
   XY=             -0.1412   XZ=              0.5809   YZ=             -0.2183

 Normal termination of Gaussian 16 at Fri Nov 10 18:35:06 2023.
