 Gaussian 16, Revision B.01,
 Gaussian 16:  EM64L-G16RevB.01 20-Dec-2017

 ---------------------------------
 # TD=(NStates=1) B3LYP/6-31G(d,p)
 ---------------------------------

 -------
 ABSSPCT
 -------
 Symbolic Z-matrix:
 Charge =  0 Multiplicity = 1

                         Standard orientation:
 ---------------------------------------------------------------------
 Center     Atomic      Atomic             Coordinates (Angstroms)
 Number     Number       Type             X           Y           Z
 ---------------------------------------------------------------------
      1          6           0       -1.100626   -0.833095   -0.036358
      2          6           0       -1.314640    0.461176    0.001965
      3          6           0       -0.154857    1.383486    0.053016
      4          6           0        1.050248    0.842816   -0.002020
      5          6           0        1.296435   -0.502029   -0.106674
      6          6           0        0.209536   -1.347879    0.124762
      7          1           0       -2.021479   -1.443097   -0.141141
      8          1           0        0.388940   -2.392161    0.036701
      9          1           0        2.358876   -0.873682   -0.023092
     10          1           0        2.047148    1.343345    0.015555
     11          1           0       -0.311299    2.407027    0.002217
     12          1           0       -2.378758    0.931721   -0.098385
 ---------------------------------------------------------------------

 SCF Done:  E(RB3LYP) =  -232.217187414     A.U. after   13 cycles

 Excitation energies and oscillator strengths:

 Excited State   1:      Singlet-A      5.5874 eV  221.90 nm  f=0.0034  <S**2>=0.000
      20 -> 22         0.54955
      21 -> 23         0.43930
 This state for optimization and/or second-order correction.
 Total Energy, E(TD-HF/TD-DFT) =  -232.011854303
 Copying the excited state density for this state as the 1-particle RhoCI density.

 The electronic state is 1-A.
 Alpha  occ. eigenvalues --  -10.19362 -10.18774 -10.18718 -10.18482 -10.18354
 Alpha  occ. eigenvalues --  -10.17951  -0.85685  -0.75445  -0.73630  -0.61305
 Alpha  occ. eigenvalues --   -0.57960  -0.52008  -0.45215  -0.44690  -0.41732
 Alpha  occ. eigenvalues --   -0.40649  -0.36718  -0.34715  -0.31938  -0.25805
 Alpha  occ. eigenvalues --   -0.24207
 Alpha virt. eigenvalues --   -0.01214   0.01704   0.08063   0.12430   0.14883
 Alpha virt. eigenvalues --    0.15695   0.17616   0.18462   0.19612   0.27664
 Alpha virt. eigenvalues --    0.31077   0.31806   0.34572   0.45692   0.49275

 Mulliken charges:
               1
     1  C   -0.073689
     2  C   -0.088477
     3  C   -0.084629
     4  C   -0.057918
     5  C   -0.093473
     6  C   -0.098357
     7  H    0.084990
     8  H    0.083039
     9  H    0.085584
    10  H    0.076595
    11  H    0.084871
    12  H    0.081463
 Sum of Mulliken charges =  -0.00000

 Dipole moment (field-independent basis, Debye):
    X=              0.0049    Y=              0.0129    Z=             -0.1103  Tot=              0.1112
 Quadrupole moment (field-independent basis, Debye-Ang):
   XX=            -31.2200   YY=            -32.4224   ZZ=            -38.3492
   XY=             -0.3349   XZ=              0.4064   YZ=              0.0393

 Normal termination of Gaussian 16 at Fri Nov 10 18:10:20 2023.
