 Gaussian 16, Revision B.01,
 Gaussian 16:  EM64L-G16RevB.01 20-Dec-2017

 ---------------------------------
 # TD=(NStates=1) B3LYP/6-31G(d,p)
 ---------------------------------

 -------
 ABSSPCT
 -------
 Symbolic Z-matrix:
 Charge =  0 Multiplicity = 1

                         Standard orientation:
 ---------------------------------------------------------------------
 Center     Atomic      Atomic             Coordinates (Angstroms)
 Number     Number       Type             X           Y           Z
 ---------------------------------------------------------------------
      1          6           0        1.428307    0.009460    0.018664
      2          6           0        0.673766    1.187810   -0.059504
      3          6           0       -0.733130    1.215338    0.011659
      4          6           0       -1.446061   -0.000495    0.006266
      5          6           0       -0.655020   -1.209796   -0.020705
      6          6           0        0.709786   -1.189600    0.005811
      7          1           0        2.558427    0.026216    0.133489
      8          1           0        1.168599   -2.156846    0.000198
      9          1           0       -1.224877   -2.204106    0.068090
     10          1           0       -2.557519   -0.104132   -0.128667
     11          1           0       -1.121437    2.245279    0.291411
     12          1           0        1.310926    2.117291   -0.137673
 ---------------------------------------------------------------------

 SCF Done:  E(RB3LYP) =  -232.234525823     A.U. after   13 cycles

 Excitation energies and oscillator strengths:

 Excited State   1:      Singlet-A      5.3216 eV  232.98 nm  f=0.0017  <S**2>=0.000
      20 -> 22         0.43995
      20 -> 23        -0.24423
      21 -> 22        -0.30316
      21 -> 23        -0.39289
 This state for optimization and/or second-order correction.
 Total Energy, E(TD-HF/TD-DFT) =  -232.038961643
 Copying the excited state density for this state as the 1-particle RhoCI density.

 The electronic state is 1-A.
 Alpha  occ. eigenvalues --  -10.20160 -10.19953 -10.19555 -10.19424 -10.19372
 Alpha  occ. eigenvalues --  -10.18445  -0.84466  -0.74089  -0.73363  -0.59985
 Alpha  occ. eigenvalues --   -0.58557  -0.50988  -0.45362  -0.43772  -0.41583
 Alpha  occ. eigenvalues --   -0.40273  -0.35913  -0.34486  -0.32919  -0.24708
 Alpha  occ. eigenvalues --   -0.24280
 Alpha virt. eigenvalues --   -0.00801   0.00252   0.07619   0.13096   0.13500
 Alpha virt. eigenvalues --    0.15470   0.16042   0.17702   0.18441   0.27943
 Alpha virt. eigenvalues --    0.30218   0.30841   0.32366   0.46624   0.50989

 Mulliken charges:
               1
     1  C   -0.081315
     2  C   -0.094112
     3  C   -0.088577
     4  C   -0.102726
     5  C   -0.087419
     6  C   -0.073509
     7  H    0.091472
     8  H    0.083351
     9  H    0.081845
    10  H    0.094977
    11  H    0.093375
    12  H    0.082637
 Sum of Mulliken charges =  -0.00000

 Dipole moment (field-independent basis, Debye):
    X=              0.1041    Y=             -0.0531    Z=              0.1439  Tot=              0.1854
 Quadrupole moment (field-independent basis, Debye-Ang):
   XX=            -31.5584   YY=            -31.8969   ZZ=            -38.7273
   XY=              0.3633   XZ=              0.0969   YZ=              0.2295

 Normal termination of Gaussian 16 at Fri Nov 10 18:46:28 2023.
