 Gaussian 16, Revision B.01,
 Gaussian 16:  EM64L-G16RevB.01 20-Dec-2017

 ---------------------------------
 # TD=(NStates=1) B3LYP/6-31G(d,p)
 ---------------------------------

 -------
 ABSSPCT
 -------
 Symbolic Z-matrix:
 Charge =  0 Multiplicity = 1

                         Standard orientation:
 ---------------------------------------------------------------------
 Center     Atomic      Atomic             Coordinates (Angstroms)
 Number     Number       Type             X           Y           Z
 ---------------------------------------------------------------------
      1          6           0       -0.939508    1.093717   -0.019405
      2          6           0        0.559165    1.321016   -0.041035
      3          6           0        1.404689    0.188365   -0.033565
      4          6           0        0.910973   -1.085819   -0.054509
      5          6           0       -0.516288   -1.298332    0.013315
      6          6           0       -1.400928   -0.167900    0.016690
      7          1           0       -1.460216    1.992233    0.210082
      8          1           0       -2.543297   -0.528634   -0.064583
      9          1           0       -1.223555   -2.231911   -0.008699
     10          1           0        1.566034   -2.057654    0.296876
     11          1           0        2.604743    0.190567    0.117522
     12          1           0        0.947673    2.329122    0.159854
 ---------------------------------------------------------------------

 SCF Done:  E(RB3LYP) =  -232.190375502     A.U. after   13 cycles

 Excitation energies and oscillator strengths:

 Excited State   1:      Singlet-A      5.2391 eV  236.65 nm  f=0.0015  <S**2>=0.000
      20 -> 22         0.49733
      21 -> 22        -0.11561
      21 -> 23        -0.48570
 This state for optimization and/or second-order correction.
 Total Energy, E(TD-HF/TD-DFT) =  -231.997841536
 Copying the excited state density for this state as the 1-particle RhoCI density.

 The electronic state is 1-A.
 Alpha  occ. eigenvalues --  -10.20820 -10.20712 -10.20640 -10.20558 -10.19993
 Alpha  occ. eigenvalues --  -10.19779  -0.84009  -0.74698  -0.72360  -0.60382
 Alpha  occ. eigenvalues --   -0.57803  -0.50404  -0.45407  -0.42892  -0.41030
 Alpha  occ. eigenvalues --   -0.39699  -0.36094  -0.34304  -0.31280  -0.25966
 Alpha  occ. eigenvalues --   -0.23604
 Alpha virt. eigenvalues --   -0.02253   0.00387   0.06163   0.09647   0.12497
 Alpha virt. eigenvalues --    0.13898   0.15721   0.16909   0.17914   0.25718
 Alpha virt. eigenvalues --    0.29181   0.29597   0.33346   0.45872   0.50712

 Mulliken charges:
               1
     1  C   -0.089947
     2  C   -0.115867
     3  C   -0.069194
     4  C   -0.097661
     5  C   -0.081056
     6  C   -0.076513
     7  H    0.095069
     8  H    0.078490
     9  H    0.090155
    10  H    0.084071
    11  H    0.084680
    12  H    0.097772
 Sum of Mulliken charges =  -0.00000

 Dipole moment (field-independent basis, Debye):
    X=             -0.0940    Y=              0.1289    Z=              0.4271  Tot=              0.4559
 Quadrupole moment (field-independent basis, Debye-Ang):
   XX=            -32.0939   YY=            -31.9657   ZZ=            -39.0354
   XY=              0.4839   XZ=              0.6161   YZ=              0.2921

 Normal termination of Gaussian 16 at Fri Nov 10 17:00:46 2023.
