 Gaussian 16, Revision B.01,
 Gaussian 16:  EM64L-G16RevB.01 20-Dec-2017

 ---------------------------------
 # TD=(NStates=1) B3LYP/6-31G(d,p)
 ---------------------------------

 -------
 ABSSPCT
 -------
 Symbolic Z-matrix:
 Charge =  0 Multiplicity = 1

                         Standard orientation:
 ---------------------------------------------------------------------
 Center     Atomic      Atomic             Coordinates (Angstroms)
 Number     Number       Type             X           Y           Z
 ---------------------------------------------------------------------
      1          6           0       -0.240541   -1.377995    0.000365
      2          6           0       -1.321678   -0.492523   -0.027838
      3          6           0       -1.134544    0.806104   -0.026570
      4          6           0        0.216932    1.395425    0.041832
      5          6           0        1.336366    0.517398    0.007591
      6          6           0        1.129837   -0.852468    0.014867
      7          1           0       -0.331638   -2.443451    0.083617
      8          1           0        2.113301   -1.437621   -0.065600
      9          1           0        2.463767    0.862328   -0.079366
     10          1           0        0.255385    2.461878   -0.107783
     11          1           0       -2.138201    1.451155    0.124483
     12          1           0       -2.280847   -0.869941   -0.016837
 ---------------------------------------------------------------------

 SCF Done:  E(RB3LYP) =  -232.216282323     A.U. after   13 cycles

 Excitation energies and oscillator strengths:

 Excited State   1:      Singlet-A      5.3944 eV  229.84 nm  f=0.0007  <S**2>=0.000
      20 -> 22         0.50098
      21 -> 23        -0.49194
 This state for optimization and/or second-order correction.
 Total Energy, E(TD-HF/TD-DFT) =  -232.018043102
 Copying the excited state density for this state as the 1-particle RhoCI density.

 The electronic state is 1-A.
 Alpha  occ. eigenvalues --  -10.20180 -10.19971 -10.19947 -10.19739 -10.19655
 Alpha  occ. eigenvalues --  -10.17787  -0.84408  -0.75228  -0.72283  -0.61027
 Alpha  occ. eigenvalues --   -0.57725  -0.51275  -0.45651  -0.43596  -0.42076
 Alpha  occ. eigenvalues --   -0.39824  -0.35823  -0.34305  -0.32817  -0.26012
 Alpha  occ. eigenvalues --   -0.23398
 Alpha virt. eigenvalues --   -0.01716   0.01149   0.07374   0.11616   0.14715
 Alpha virt. eigenvalues --    0.15293   0.16250   0.17284   0.19104   0.27491
 Alpha virt. eigenvalues --    0.29018   0.30676   0.32531   0.46578   0.51440

 Mulliken charges:
               1
     1  C   -0.102804
     2  C   -0.040103
     3  C   -0.098815
     4  C   -0.104973
     5  C   -0.079010
     6  C   -0.090163
     7  H    0.089094
     8  H    0.088058
     9  H    0.084522
    10  H    0.093031
    11  H    0.076256
    12  H    0.084908
 Sum of Mulliken charges =  -0.00000

 Dipole moment (field-independent basis, Debye):
    X=             -0.0460    Y=             -0.1331    Z=             -0.0441  Tot=              0.1475
 Quadrupole moment (field-independent basis, Debye-Ang):
   XX=            -30.9658   YY=            -32.3315   ZZ=            -38.8131
   XY=             -0.0210   XZ=             -0.4962   YZ=             -0.2411

 Normal termination of Gaussian 16 at Fri Nov 10 16:12:08 2023.
