 Gaussian 16, Revision B.01,
 Gaussian 16:  EM64L-G16RevB.01 20-Dec-2017

 ---------------------------------
 # TD=(NStates=1) B3LYP/6-31G(d,p)
 ---------------------------------

 -------
 ABSSPCT
 -------
 Symbolic Z-matrix:
 Charge =  0 Multiplicity = 1

                         Standard orientation:
 ---------------------------------------------------------------------
 Center     Atomic      Atomic             Coordinates (Angstroms)
 Number     Number       Type             X           Y           Z
 ---------------------------------------------------------------------
      1          6           0        0.096526   -1.365072   -0.009626
      2          6           0       -1.200603   -0.726183    0.033568
      3          6           0       -1.270179    0.621504    0.013940
      4          6           0       -0.091595    1.375528   -0.028194
      5          6           0        1.222468    0.715629    0.045153
      6          6           0        1.279729   -0.635368   -0.077245
      7          1           0       -0.058796   -2.538249   -0.002306
      8          1           0        2.221974   -1.140054    0.036914
      9          1           0        2.147095    1.429603    0.193560
     10          1           0       -0.183958    2.564137   -0.052989
     11          1           0       -2.186473    1.130409   -0.160629
     12          1           0       -2.157916   -1.362078    0.119864
 ---------------------------------------------------------------------

 SCF Done:  E(RB3LYP) =  -232.220254449     A.U. after   13 cycles

 Excitation energies and oscillator strengths:

 Excited State   1:      Singlet-A      5.4240 eV  228.59 nm  f=0.0020  <S**2>=0.000
      20 -> 22        -0.46343
      21 -> 23         0.53288
 This state for optimization and/or second-order correction.
 Total Energy, E(TD-HF/TD-DFT) =  -232.020927223
 Copying the excited state density for this state as the 1-particle RhoCI density.

 The electronic state is 1-A.
 Alpha  occ. eigenvalues --  -10.20408 -10.20365 -10.20276 -10.19445 -10.19125
 Alpha  occ. eigenvalues --  -10.18344  -0.84698  -0.75429  -0.72083  -0.59398
 Alpha  occ. eigenvalues --   -0.59021  -0.50784  -0.44980  -0.44072  -0.42451
 Alpha  occ. eigenvalues --   -0.39002  -0.36205  -0.33924  -0.32754  -0.26056
 Alpha  occ. eigenvalues --   -0.23506
 Alpha virt. eigenvalues --   -0.01051   0.00651   0.07027   0.12144   0.12815
 Alpha virt. eigenvalues --    0.15277   0.16140   0.17074   0.18468   0.26986
 Alpha virt. eigenvalues --    0.29557   0.31267   0.33509   0.46577   0.51079

 Mulliken charges:
               1
     1  C   -0.093289
     2  C   -0.087380
     3  C   -0.062372
     4  C   -0.101758
     5  C   -0.092011
     6  C   -0.080031
     7  H    0.082214
     8  H    0.093675
     9  H    0.088778
    10  H    0.079200
    11  H    0.087736
    12  H    0.085239
 Sum of Mulliken charges =  -0.00000

 Dipole moment (field-independent basis, Debye):
    X=             -0.0720    Y=              0.0150    Z=              0.0755  Tot=              0.1054
 Quadrupole moment (field-independent basis, Debye-Ang):
   XX=            -31.4823   YY=            -32.0506   ZZ=            -38.8431
   XY=              0.2038   XZ=              0.4954   YZ=             -0.1852

 Normal termination of Gaussian 16 at Fri Nov 10 16:16:35 2023.
