 Gaussian 16, Revision B.01,
 Gaussian 16:  EM64L-G16RevB.01 20-Dec-2017

 ---------------------------------
 # TD=(NStates=1) B3LYP/6-31G(d,p)
 ---------------------------------

 -------
 ABSSPCT
 -------
 Symbolic Z-matrix:
 Charge =  0 Multiplicity = 1

                         Standard orientation:
 ---------------------------------------------------------------------
 Center     Atomic      Atomic             Coordinates (Angstroms)
 Number     Number       Type             X           Y           Z
 ---------------------------------------------------------------------
      1          6           0       -1.338375   -0.360934    0.004281
      2          6           0       -0.379603   -1.346513   -0.031619
      3          6           0        0.966200   -0.943435    0.005455
      4          6           0        1.362415    0.338000    0.052840
      5          6           0        0.381171    1.330897   -0.035877
      6          6           0       -0.996615    0.991453   -0.080520
      7          1           0       -2.388131   -0.542660    0.284373
      8          1           0       -1.848465    1.704541    0.089785
      9          1           0        0.717071    2.388959    0.175575
     10          1           0        2.468633    0.385769    0.004557
     11          1           0        1.713070   -1.582793   -0.093368
     12          1           0       -0.633341   -2.410624    0.051724
 ---------------------------------------------------------------------

 SCF Done:  E(RB3LYP) =  -232.225458004     A.U. after   13 cycles

 Excitation energies and oscillator strengths:

 Excited State   1:      Singlet-A      5.4679 eV  226.75 nm  f=0.0002  <S**2>=0.000
      20 -> 22         0.50494
      21 -> 23        -0.48558
 This state for optimization and/or second-order correction.
 Total Energy, E(TD-HF/TD-DFT) =  -232.024516014
 Copying the excited state density for this state as the 1-particle RhoCI density.

 The electronic state is 1-A.
 Alpha  occ. eigenvalues --  -10.19758 -10.19509 -10.18780 -10.18709 -10.18338
 Alpha  occ. eigenvalues --  -10.17009  -0.85249  -0.75188  -0.73502  -0.60946
 Alpha  occ. eigenvalues --   -0.58857  -0.51760  -0.45448  -0.44608  -0.41575
 Alpha  occ. eigenvalues --   -0.41115  -0.36239  -0.34138  -0.33186  -0.25189
 Alpha  occ. eigenvalues --   -0.24312
 Alpha virt. eigenvalues --   -0.00580   0.00557   0.08486   0.13434   0.14361
 Alpha virt. eigenvalues --    0.15425   0.16477   0.19183   0.21168   0.29513
 Alpha virt. eigenvalues --    0.29729   0.32349   0.32999   0.46023   0.52381

 Mulliken charges:
               1
     1  C   -0.089886
     2  C   -0.078394
     3  C   -0.065424
     4  C   -0.066485
     5  C   -0.115984
     6  C   -0.084860
     7  H    0.085643
     8  H    0.090269
     9  H    0.083077
    10  H    0.087130
    11  H    0.070029
    12  H    0.084886
 Sum of Mulliken charges =  -0.00000

 Dipole moment (field-independent basis, Debye):
    X=              0.0568    Y=             -0.1497    Z=              0.2997  Tot=              0.3398
 Quadrupole moment (field-independent basis, Debye-Ang):
   XX=            -31.1004   YY=            -32.4883   ZZ=            -38.3150
   XY=             -0.5274   XZ=             -0.7627   YZ=              0.3765

 Normal termination of Gaussian 16 at Fri Nov 10 16:09:54 2023.
