 Gaussian 16, Revision B.01,
 Gaussian 16:  EM64L-G16RevB.01 20-Dec-2017

 ---------------------------------
 # TD=(NStates=1) B3LYP/6-31G(d,p)
 ---------------------------------

 -------
 ABSSPCT
 -------
 Symbolic Z-matrix:
 Charge =  0 Multiplicity = 1

                         Standard orientation:
 ---------------------------------------------------------------------
 Center     Atomic      Atomic             Coordinates (Angstroms)
 Number     Number       Type             X           Y           Z
 ---------------------------------------------------------------------
      1          6           0        0.235978   -1.367893   -0.031709
      2          6           0       -1.098831   -0.857637    0.002854
      3          6           0       -1.290311    0.442816   -0.016422
      4          6           0       -0.180892    1.389536    0.003887
      5          6           0        1.068130    0.879681   -0.030611
      6          6           0        1.326539   -0.503934    0.037505
      7          1           0        0.354695   -2.424269    0.108086
      8          1           0        2.243865   -1.104788    0.113058
      9          1           0        1.884956    1.703312   -0.095287
     10          1           0       -0.375433    2.387658    0.000561
     11          1           0       -2.412839    0.918332    0.304858
     12          1           0       -2.058924   -1.375653   -0.224306
 ---------------------------------------------------------------------

 SCF Done:  E(RB3LYP) =  -232.206178636     A.U. after   13 cycles

 Excitation energies and oscillator strengths:

 Excited State   1:      Singlet-A      5.5227 eV  224.50 nm  f=0.0000  <S**2>=0.000
      20 -> 22         0.49090
      21 -> 23         0.50804
 This state for optimization and/or second-order correction.
 Total Energy, E(TD-HF/TD-DFT) =  -232.003224507
 Copying the excited state density for this state as the 1-particle RhoCI density.

 The electronic state is 1-A.
 Alpha  occ. eigenvalues --  -10.19744 -10.19677 -10.19579 -10.19149 -10.18480
 Alpha  occ. eigenvalues --  -10.18258  -0.85240  -0.74899  -0.74042  -0.60469
 Alpha  occ. eigenvalues --   -0.58623  -0.51744  -0.45075  -0.44455  -0.41428
 Alpha  occ. eigenvalues --   -0.40437  -0.36807  -0.34721  -0.31231  -0.25598
 Alpha  occ. eigenvalues --   -0.24482
 Alpha virt. eigenvalues --   -0.00666   0.00390   0.07515   0.11509   0.13891
 Alpha virt. eigenvalues --    0.15980   0.16288   0.17890   0.19079   0.28213
 Alpha virt. eigenvalues --    0.29482   0.31646   0.33763   0.45664   0.48690

 Mulliken charges:
               1
     1  C   -0.106371
     2  C   -0.073299
     3  C   -0.087507
     4  C   -0.062207
     5  C   -0.091788
     6  C   -0.078680
     7  H    0.088951
     8  H    0.095817
     9  H    0.077933
    10  H    0.085459
    11  H    0.060510
    12  H    0.091182
 Sum of Mulliken charges =  -0.00000

 Dipole moment (field-independent basis, Debye):
    X=              0.0776    Y=             -0.0257    Z=              0.0912  Tot=              0.1225
 Quadrupole moment (field-independent basis, Debye-Ang):
   XX=            -32.5324   YY=            -31.4267   ZZ=            -38.4663
   XY=             -0.3778   XZ=              0.0174   YZ=             -0.0002

 Normal termination of Gaussian 16 at Fri Nov 10 18:26:11 2023.
