 Gaussian 16, Revision B.01,
 Gaussian 16:  EM64L-G16RevB.01 20-Dec-2017

 ---------------------------------
 # TD=(NStates=1) B3LYP/6-31G(d,p)
 ---------------------------------

 -------
 ABSSPCT
 -------
 Symbolic Z-matrix:
 Charge =  0 Multiplicity = 1

                         Standard orientation:
 ---------------------------------------------------------------------
 Center     Atomic      Atomic             Coordinates (Angstroms)
 Number     Number       Type             X           Y           Z
 ---------------------------------------------------------------------
      1          6           0       -0.292199   -1.307577   -0.070173
      2          6           0        1.079565   -0.940954    0.002502
      3          6           0        1.403434    0.398476    0.020240
      4          6           0        0.254943    1.306535   -0.032208
      5          6           0       -1.078102    0.928291   -0.060753
      6          6           0       -1.420939   -0.442800    0.100920
      7          1           0       -0.472142   -2.394352   -0.012362
      8          1           0       -2.424384   -0.714276    0.122150
      9          1           0       -1.729082    1.827513   -0.115279
     10          1           0        0.651924    2.313730    0.175621
     11          1           0        2.491316    1.017167    0.091831
     12          1           0        1.802156   -1.701601   -0.025129
 ---------------------------------------------------------------------

 SCF Done:  E(RB3LYP) =  -232.210389679     A.U. after   13 cycles

 Excitation energies and oscillator strengths:

 Excited State   1:      Singlet-A      5.2226 eV  237.40 nm  f=0.0061  <S**2>=0.000
      20 -> 22         0.37259
      20 -> 23         0.24092
      21 -> 22        -0.38376
      21 -> 23         0.39400
 This state for optimization and/or second-order correction.
 Total Energy, E(TD-HF/TD-DFT) =  -232.018462181
 Copying the excited state density for this state as the 1-particle RhoCI density.

 The electronic state is 1-A.
 Alpha  occ. eigenvalues --  -10.20759 -10.19834 -10.19764 -10.19548 -10.19125
 Alpha  occ. eigenvalues --  -10.18843  -0.84070  -0.74534  -0.72817  -0.60020
 Alpha  occ. eigenvalues --   -0.59019  -0.51500  -0.45372  -0.43399  -0.42824
 Alpha  occ. eigenvalues --   -0.39528  -0.35714  -0.34287  -0.32284  -0.25258
 Alpha  occ. eigenvalues --   -0.23690
 Alpha virt. eigenvalues --   -0.01150   0.00035   0.07208   0.12205   0.13786
 Alpha virt. eigenvalues --    0.14807   0.17022   0.18071   0.18641   0.26705
 Alpha virt. eigenvalues --    0.28747   0.31088   0.32250   0.46986   0.49690

 Mulliken charges:
               1
     1  C   -0.105510
     2  C   -0.078228
     3  C   -0.085557
     4  C   -0.081975
     5  C   -0.088200
     6  C   -0.081356
     7  H    0.080344
     8  H    0.097384
     9  H    0.089812
    10  H    0.081037
    11  H    0.082833
    12  H    0.089417
 Sum of Mulliken charges =  -0.00000

 Dipole moment (field-independent basis, Debye):
    X=             -0.0475    Y=              0.0099    Z=              0.1505  Tot=              0.1581
 Quadrupole moment (field-independent basis, Debye-Ang):
   XX=            -31.3403   YY=            -31.9613   ZZ=            -38.8400
   XY=              0.2636   XZ=              0.1205   YZ=              0.2022

 Normal termination of Gaussian 16 at Fri Nov 10 17:53:04 2023.
