 Gaussian 16, Revision B.01,
 Gaussian 16:  EM64L-G16RevB.01 20-Dec-2017

 ---------------------------------
 # TD=(NStates=1) B3LYP/6-31G(d,p)
 ---------------------------------

 -------
 ABSSPCT
 -------
 Symbolic Z-matrix:
 Charge =  0 Multiplicity = 1

                         Standard orientation:
 ---------------------------------------------------------------------
 Center     Atomic      Atomic             Coordinates (Angstroms)
 Number     Number       Type             X           Y           Z
 ---------------------------------------------------------------------
      1          6           0       -1.388685    0.328497    0.018356
      2          6           0       -0.946001   -1.004200   -0.072553
      3          6           0        0.343423   -1.324766   -0.015674
      4          6           0        1.352044   -0.374012   -0.009881
      5          6           0        0.998787    1.036329    0.005775
      6          6           0       -0.398698    1.308257    0.055690
      7          1           0       -2.423514    0.710349    0.040037
      8          1           0       -0.819300    2.364455   -0.096126
      9          1           0        1.971116    1.638411   -0.168540
     10          1           0        2.482120   -0.489548    0.069759
     11          1           0        0.779538   -2.262143    0.234320
     12          1           0       -1.755178   -1.782149    0.030266
 ---------------------------------------------------------------------

 SCF Done:  E(RB3LYP) =  -232.214525576     A.U. after   13 cycles

 Excitation energies and oscillator strengths:

 Excited State   1:      Singlet-A      5.3822 eV  230.36 nm  f=0.0011  <S**2>=0.000
      20 -> 22         0.50287
      20 -> 23         0.10695
      21 -> 22        -0.15847
      21 -> 23         0.45793
 This state for optimization and/or second-order correction.
 Total Energy, E(TD-HF/TD-DFT) =  -232.016731594
 Copying the excited state density for this state as the 1-particle RhoCI density.

 The electronic state is 1-A.
 Alpha  occ. eigenvalues --  -10.20217 -10.19832 -10.19415 -10.19389 -10.19196
 Alpha  occ. eigenvalues --  -10.18192  -0.84951  -0.74396  -0.73569  -0.60056
 Alpha  occ. eigenvalues --   -0.59008  -0.51174  -0.45402  -0.44616  -0.41391
 Alpha  occ. eigenvalues --   -0.40172  -0.35859  -0.35053  -0.31366  -0.25055
 Alpha  occ. eigenvalues --   -0.24324
 Alpha virt. eigenvalues --   -0.00842   0.00330   0.07383   0.12026   0.13303
 Alpha virt. eigenvalues --    0.15151   0.16985   0.18037   0.18819   0.26917
 Alpha virt. eigenvalues --    0.29657   0.31386   0.33712   0.46197   0.51926

 Mulliken charges:
               1
     1  C   -0.073890
     2  C   -0.097999
     3  C   -0.059890
     4  C   -0.108038
     5  C   -0.082493
     6  C   -0.104264
     7  H    0.096490
     8  H    0.075916
     9  H    0.093966
    10  H    0.086972
    11  H    0.090493
    12  H    0.082737
 Sum of Mulliken charges =  -0.00000

 Dipole moment (field-independent basis, Debye):
    X=              0.0565    Y=             -0.0382    Z=              0.0659  Tot=              0.0948
 Quadrupole moment (field-independent basis, Debye-Ang):
   XX=            -30.5543   YY=            -33.1983   ZZ=            -38.6569
   XY=             -0.2990   XZ=             -0.0379   YZ=             -0.8928

 Normal termination of Gaussian 16 at Fri Nov 10 18:17:31 2023.
