 Gaussian 16, Revision B.01,
 Gaussian 16:  EM64L-G16RevB.01 20-Dec-2017

 ---------------------------------
 # TD=(NStates=1) B3LYP/6-31G(d,p)
 ---------------------------------

 -------
 ABSSPCT
 -------
 Symbolic Z-matrix:
 Charge =  0 Multiplicity = 1

                         Standard orientation:
 ---------------------------------------------------------------------
 Center     Atomic      Atomic             Coordinates (Angstroms)
 Number     Number       Type             X           Y           Z
 ---------------------------------------------------------------------
      1          6           0       -1.363955    0.308616    0.038937
      2          6           0       -0.959033   -1.074885    0.015488
      3          6           0        0.457342   -1.252759    0.003073
      4          6           0        1.422540   -0.289245   -0.046442
      5          6           0        0.926740    1.021933    0.019963
      6          6           0       -0.479528    1.267584   -0.057852
      7          1           0       -2.476955    0.421224   -0.025555
      8          1           0       -0.940641    2.223854   -0.080949
      9          1           0        1.641199    1.940398    0.253483
     10          1           0        2.491576   -0.373758    0.004996
     11          1           0        0.799665   -2.230367   -0.015277
     12          1           0       -1.539477   -1.868820    0.024299
 ---------------------------------------------------------------------

 SCF Done:  E(RB3LYP) =  -232.213356149     A.U. after   13 cycles

 Excitation energies and oscillator strengths:

 Excited State   1:      Singlet-A      5.4783 eV  226.32 nm  f=0.0045  <S**2>=0.000
      20 -> 22         0.48056
      21 -> 22         0.20373
      21 -> 23         0.46720
 This state for optimization and/or second-order correction.
 Total Energy, E(TD-HF/TD-DFT) =  -232.012031539
 Copying the excited state density for this state as the 1-particle RhoCI density.

 The electronic state is 1-A.
 Alpha  occ. eigenvalues --  -10.20119 -10.18718 -10.18596 -10.18262 -10.18113
 Alpha  occ. eigenvalues --  -10.17874  -0.85011  -0.75472  -0.73255  -0.60862
 Alpha  occ. eigenvalues --   -0.59048  -0.52449  -0.46396  -0.44039  -0.42158
 Alpha  occ. eigenvalues --   -0.40885  -0.36556  -0.34672  -0.31874  -0.25845
 Alpha  occ. eigenvalues --   -0.23507
 Alpha virt. eigenvalues --   -0.01171   0.01465   0.08825   0.13644   0.14954
 Alpha virt. eigenvalues --    0.16015   0.17687   0.18127   0.20131   0.28443
 Alpha virt. eigenvalues --    0.28931   0.32206   0.34133   0.45505   0.49947

 Mulliken charges:
               1
     1  C   -0.088238
     2  C   -0.059025
     3  C   -0.100966
     4  C   -0.063474
     5  C   -0.108200
     6  C   -0.066194
     7  H    0.080811
     8  H    0.082532
     9  H    0.079019
    10  H    0.094943
    11  H    0.071858
    12  H    0.076934
 Sum of Mulliken charges =  -0.00000

 Dipole moment (field-independent basis, Debye):
    X=             -0.0178    Y=             -0.1015    Z=              0.0891  Tot=              0.1362
 Quadrupole moment (field-independent basis, Debye-Ang):
   XX=            -31.0292   YY=            -32.1549   ZZ=            -38.3539
   XY=              0.2537   XZ=              0.4006   YZ=              0.2215

 Normal termination of Gaussian 16 at Fri Nov 10 17:14:03 2023.
