 Gaussian 16, Revision B.01,
 Gaussian 16:  EM64L-G16RevB.01 20-Dec-2017

 ---------------------------------
 # TD=(NStates=1) B3LYP/6-31G(d,p)
 ---------------------------------

 -------
 ABSSPCT
 -------
 Symbolic Z-matrix:
 Charge =  0 Multiplicity = 1

                         Standard orientation:
 ---------------------------------------------------------------------
 Center     Atomic      Atomic             Coordinates (Angstroms)
 Number     Number       Type             X           Y           Z
 ---------------------------------------------------------------------
      1          6           0       -0.281566    1.353290    0.043705
      2          6           0       -1.328427    0.452712    0.014708
      3          6           0       -1.039421   -0.909345   -0.050948
      4          6           0        0.300923   -1.347463   -0.021027
      5          6           0        1.348682   -0.441547    0.050978
      6          6           0        1.055142    0.904769   -0.086658
      7          1           0       -0.485088    2.533759    0.031808
      8          1           0        1.922101    1.538384   -0.041849
      9          1           0        2.291000   -0.846505    0.159369
     10          1           0        0.311553   -2.440699    0.040819
     11          1           0       -2.001840   -1.531145    0.040733
     12          1           0       -2.369726    0.671708    0.064579
 ---------------------------------------------------------------------

 SCF Done:  E(RB3LYP) =  -232.229453194     A.U. after   12 cycles

 Excitation energies and oscillator strengths:

 Excited State   1:      Singlet-A      5.4871 eV  225.96 nm  f=0.0003  <S**2>=0.000
      20 -> 22         0.48295
      20 -> 23         0.10005
      21 -> 22        -0.12384
      21 -> 23         0.49087
 This state for optimization and/or second-order correction.
 Total Energy, E(TD-HF/TD-DFT) =  -232.027805543
 Copying the excited state density for this state as the 1-particle RhoCI density.

 The electronic state is 1-A.
 Alpha  occ. eigenvalues --  -10.20131 -10.19066 -10.19022 -10.18875 -10.18488
 Alpha  occ. eigenvalues --  -10.18353  -0.84947  -0.74900  -0.73345  -0.60166
 Alpha  occ. eigenvalues --   -0.59516  -0.51541  -0.45983  -0.44265  -0.41483
 Alpha  occ. eigenvalues --   -0.40376  -0.36186  -0.34596  -0.32527  -0.25145
 Alpha  occ. eigenvalues --   -0.24384
 Alpha virt. eigenvalues --   -0.00288   0.00345   0.08112   0.12928   0.14259
 Alpha virt. eigenvalues --    0.15552   0.16654   0.18592   0.19441   0.29148
 Alpha virt. eigenvalues --    0.30684   0.30899   0.32642   0.46020   0.52566

 Mulliken charges:
               1
     1  C   -0.092364
     2  C   -0.066991
     3  C   -0.090465
     4  C   -0.090405
     5  C   -0.072764
     6  C   -0.093624
     7  H    0.076563
     8  H    0.087571
     9  H    0.089102
    10  H    0.085487
    11  H    0.082324
    12  H    0.085565
 Sum of Mulliken charges =  -0.00000

 Dipole moment (field-independent basis, Debye):
    X=             -0.0039    Y=             -0.1060    Z=              0.1892  Tot=              0.2169
 Quadrupole moment (field-independent basis, Debye-Ang):
   XX=            -30.9456   YY=            -32.4651   ZZ=            -38.5690
   XY=              0.2117   XZ=              0.0469   YZ=             -0.2291

 Normal termination of Gaussian 16 at Fri Nov 10 18:27:17 2023.
