 Gaussian 16, Revision B.01,
 Gaussian 16:  EM64L-G16RevB.01 20-Dec-2017

 ---------------------------------
 # TD=(NStates=1) B3LYP/6-31G(d,p)
 ---------------------------------

 -------
 ABSSPCT
 -------
 Symbolic Z-matrix:
 Charge =  0 Multiplicity = 1

                         Standard orientation:
 ---------------------------------------------------------------------
 Center     Atomic      Atomic             Coordinates (Angstroms)
 Number     Number       Type             X           Y           Z
 ---------------------------------------------------------------------
      1          6           0       -1.388192   -0.170209    0.067360
      2          6           0       -0.871335    1.071265   -0.049938
      3          6           0        0.492017    1.229749   -0.033288
      4          6           0        1.379959    0.192260   -0.033780
      5          6           0        0.916167   -1.083100    0.028616
      6          6           0       -0.504624   -1.262123   -0.038383
      7          1           0       -2.537967   -0.489527   -0.036881
      8          1           0       -1.021551   -2.229609   -0.019714
      9          1           0        1.450128   -1.924246    0.034693
     10          1           0        2.477469    0.442172    0.138906
     11          1           0        0.902327    2.330056    0.101411
     12          1           0       -1.414356    2.004102    0.138064
 ---------------------------------------------------------------------

 SCF Done:  E(RB3LYP) =  -232.219043929     A.U. after   12 cycles

 Excitation energies and oscillator strengths:

 Excited State   1:      Singlet-A      5.5817 eV  222.13 nm  f=0.0028  <S**2>=0.000
      20 -> 22        -0.44325
      20 -> 23         0.12542
      21 -> 22         0.16754
      21 -> 23         0.50919
 This state for optimization and/or second-order correction.
 Total Energy, E(TD-HF/TD-DFT) =  -232.013921922
 Copying the excited state density for this state as the 1-particle RhoCI density.

 The electronic state is 1-A.
 Alpha  occ. eigenvalues --  -10.19525 -10.19054 -10.19014 -10.18905 -10.18392
 Alpha  occ. eigenvalues --  -10.18340  -0.85778  -0.75269  -0.73645  -0.60729
 Alpha  occ. eigenvalues --   -0.58890  -0.51718  -0.45821  -0.44044  -0.41741
 Alpha  occ. eigenvalues --   -0.40263  -0.36663  -0.33962  -0.32779  -0.25828
 Alpha  occ. eigenvalues --   -0.24347
 Alpha virt. eigenvalues --   -0.00204   0.00406   0.07267   0.11970   0.14401
 Alpha virt. eigenvalues --    0.15830   0.17528   0.18758   0.19092   0.28381
 Alpha virt. eigenvalues --    0.31107   0.32008   0.34162   0.46178   0.50565

 Mulliken charges:
               1
     1  C   -0.086588
     2  C   -0.073408
     3  C   -0.084713
     4  C   -0.078593
     5  C   -0.064011
     6  C   -0.099219
     7  H    0.077951
     8  H    0.082703
     9  H    0.082454
    10  H    0.083572
    11  H    0.074551
    12  H    0.085301
 Sum of Mulliken charges =  -0.00000

 Dipole moment (field-independent basis, Debye):
    X=              0.0724    Y=             -0.1179    Z=              0.2025  Tot=              0.2453
 Quadrupole moment (field-independent basis, Debye-Ang):
   XX=            -32.1414   YY=            -31.7239   ZZ=            -38.4275
   XY=              0.2150   XZ=              0.3446   YZ=              0.4673

 Normal termination of Gaussian 16 at Fri Nov 10 17:37:29 2023.
