 Gaussian 16, Revision B.01,
 Gaussian 16:  EM64L-G16RevB.01 20-Dec-2017

 ---------------------------------
 # TD=(NStates=1) B3LYP/6-31G(d,p)
 ---------------------------------

 -------
 ABSSPCT
 -------
 Symbolic Z-matrix:
 Charge =  0 Multiplicity = 1

                         Standard orientation:
 ---------------------------------------------------------------------
 Center     Atomic      Atomic             Coordinates (Angstroms)
 Number     Number       Type             X           Y           Z
 ---------------------------------------------------------------------
      1          6           0        0.019666   -1.331516    0.035669
      2          6           0        1.195244   -0.723527   -0.038108
      3          6           0        1.161888    0.642759   -0.027058
      4          6           0        0.035229    1.329696    0.026044
      5          6           0       -1.199513    0.720770   -0.050298
      6          6           0       -1.242488   -0.624069    0.000855
      7          1           0       -0.175768   -2.411275    0.104487
      8          1           0       -2.059941   -1.380719   -0.008461
      9          1           0       -2.156764    1.315828    0.110176
     10          1           0        0.230966    2.492857   -0.024946
     11          1           0        2.308003    1.162224    0.233448
     12          1           0        2.033351   -1.263591   -0.097328
 ---------------------------------------------------------------------

 SCF Done:  E(RB3LYP) =  -232.195748827     A.U. after   13 cycles

 Excitation energies and oscillator strengths:

 Excited State   1:      Singlet-A      5.7688 eV  214.92 nm  f=0.0029  <S**2>=0.000
      20 -> 22        -0.34342
      20 -> 23         0.30278
      21 -> 22         0.37944
      21 -> 23         0.38172
 This state for optimization and/or second-order correction.
 Total Energy, E(TD-HF/TD-DFT) =  -231.983749806
 Copying the excited state density for this state as the 1-particle RhoCI density.

 The electronic state is 1-A.
 Alpha  occ. eigenvalues --  -10.19366 -10.19317 -10.18953 -10.18899 -10.18221
 Alpha  occ. eigenvalues --  -10.17153  -0.86747  -0.75701  -0.74144  -0.60927
 Alpha  occ. eigenvalues --   -0.58775  -0.52152  -0.45645  -0.44612  -0.42011
 Alpha  occ. eigenvalues --   -0.39719  -0.37461  -0.33012  -0.32442  -0.25915
 Alpha  occ. eigenvalues --   -0.24815
 Alpha virt. eigenvalues --    0.00330   0.00761   0.05968   0.11494   0.13575
 Alpha virt. eigenvalues --    0.16003   0.17644   0.18200   0.20166   0.27757
 Alpha virt. eigenvalues --    0.31317   0.33654   0.35122   0.45609   0.50814

 Mulliken charges:
               1
     1  C   -0.091083
     2  C   -0.040992
     3  C   -0.079409
     4  C   -0.080507
     5  C   -0.102948
     6  C   -0.075103
     7  H    0.074272
     8  H    0.089826
     9  H    0.086849
    10  H    0.082448
    11  H    0.056672
    12  H    0.079975
 Sum of Mulliken charges =  -0.00000

 Dipole moment (field-independent basis, Debye):
    X=             -0.0478    Y=             -0.3167    Z=              0.1357  Tot=              0.3479
 Quadrupole moment (field-independent basis, Debye-Ang):
   XX=            -32.1650   YY=            -32.1237   ZZ=            -38.2666
   XY=              0.1168   XZ=             -0.0139   YZ=              0.1539

 Normal termination of Gaussian 16 at Fri Nov 10 19:28:53 2023.
