 Gaussian 16, Revision B.01,
 Gaussian 16:  EM64L-G16RevB.01 20-Dec-2017

 ---------------------------------
 # TD=(NStates=1) B3LYP/6-31G(d,p)
 ---------------------------------

 -------
 ABSSPCT
 -------
 Symbolic Z-matrix:
 Charge =  0 Multiplicity = 1

                         Standard orientation:
 ---------------------------------------------------------------------
 Center     Atomic      Atomic             Coordinates (Angstroms)
 Number     Number       Type             X           Y           Z
 ---------------------------------------------------------------------
      1          6           0       -0.667421   -1.204824   -0.046917
      2          6           0        0.803790   -1.175391    0.038588
      3          6           0        1.424875    0.031160   -0.019819
      4          6           0        0.689424    1.197660   -0.038000
      5          6           0       -0.760100    1.168447   -0.020541
      6          6           0       -1.461198   -0.063737    0.020448
      7          1           0       -1.421753   -1.992583   -0.055006
      8          1           0       -2.515932   -0.013998    0.083872
      9          1           0       -1.268714    2.213044    0.100526
     10          1           0        1.285974    2.216780    0.154566
     11          1           0        2.536993    0.052159   -0.027957
     12          1           0        1.207212   -2.195291    0.141440
 ---------------------------------------------------------------------

 SCF Done:  E(RB3LYP) =  -232.216147924     A.U. after   13 cycles

 Excitation energies and oscillator strengths:

 Excited State   1:      Singlet-A      5.3488 eV  231.80 nm  f=0.0013  <S**2>=0.000
      20 -> 22         0.47245
      21 -> 23         0.51874
 This state for optimization and/or second-order correction.
 Total Energy, E(TD-HF/TD-DFT) =  -232.019584568
 Copying the excited state density for this state as the 1-particle RhoCI density.

 The electronic state is 1-A.
 Alpha  occ. eigenvalues --  -10.20179 -10.20129 -10.20004 -10.19430 -10.19235
 Alpha  occ. eigenvalues --  -10.18885  -0.84285  -0.75175  -0.72276  -0.60105
 Alpha  occ. eigenvalues --   -0.58848  -0.50892  -0.46520  -0.43477  -0.41702
 Alpha  occ. eigenvalues --   -0.39471  -0.35795  -0.33610  -0.32890  -0.25646
 Alpha  occ. eigenvalues --   -0.23546
 Alpha virt. eigenvalues --   -0.01094   0.00470   0.07590   0.13198   0.13442
 Alpha virt. eigenvalues --    0.14893   0.15616   0.17119   0.18247   0.27857
 Alpha virt. eigenvalues --    0.29404   0.30511   0.31920   0.45481   0.51231

 Mulliken charges:
               1
     1  C   -0.103856
     2  C   -0.086552
     3  C   -0.075909
     4  C   -0.092297
     5  C   -0.095274
     6  C   -0.078302
     7  H    0.087623
     8  H    0.095459
     9  H    0.078432
    10  H    0.081964
    11  H    0.090793
    12  H    0.097919
 Sum of Mulliken charges =  -0.00000

 Dipole moment (field-independent basis, Debye):
    X=             -0.1069    Y=             -0.0874    Z=              0.2419  Tot=              0.2785
 Quadrupole moment (field-independent basis, Debye-Ang):
   XX=            -30.9423   YY=            -32.4341   ZZ=            -38.8558
   XY=              0.1467   XZ=              0.0254   YZ=              0.2699

 Normal termination of Gaussian 16 at Fri Nov 10 18:50:34 2023.
