 Gaussian 16, Revision B.01,
 Gaussian 16:  EM64L-G16RevB.01 20-Dec-2017

 ---------------------------------
 # TD=(NStates=1) B3LYP/6-31G(d,p)
 ---------------------------------

 -------
 ABSSPCT
 -------
 Symbolic Z-matrix:
 Charge =  0 Multiplicity = 1

                         Standard orientation:
 ---------------------------------------------------------------------
 Center     Atomic      Atomic             Coordinates (Angstroms)
 Number     Number       Type             X           Y           Z
 ---------------------------------------------------------------------
      1          6           0       -1.192110    0.760011    0.026098
      2          6           0       -1.282049   -0.652079   -0.063430
      3          6           0       -0.112632   -1.340487    0.048228
      4          6           0        1.250875   -0.708033    0.023008
      5          6           0        1.270602    0.538900   -0.024767
      6          6           0        0.044701    1.375944   -0.030932
      7          1           0       -1.970897    1.353678    0.023816
      8          1           0        0.364112    2.552651    0.171998
      9          1           0        2.113248    1.165771   -0.014690
     10          1           0        1.922601   -1.467637   -0.121129
     11          1           0       -0.071003   -2.431937    0.074956
     12          1           0       -2.234384   -1.018066   -0.004176
 ---------------------------------------------------------------------

 SCF Done:  E(RB3LYP) =  -232.181336386     A.U. after   13 cycles

 Excitation energies and oscillator strengths:

 Excited State   1:      Singlet-A      5.6001 eV  221.40 nm  f=0.0017  <S**2>=0.000
      20 -> 22         0.47443
      21 -> 23         0.51671
 This state for optimization and/or second-order correction.
 Total Energy, E(TD-HF/TD-DFT) =  -231.975538187
 Copying the excited state density for this state as the 1-particle RhoCI density.

 The electronic state is 1-A.
 Alpha  occ. eigenvalues --  -10.20107 -10.19039 -10.18296 -10.17976 -10.17687
 Alpha  occ. eigenvalues --  -10.17503  -0.84951  -0.76260  -0.72721  -0.60679
 Alpha  occ. eigenvalues --   -0.59932  -0.52414  -0.47358  -0.44429  -0.42963
 Alpha  occ. eigenvalues --   -0.39815  -0.36327  -0.33883  -0.31737  -0.26348
 Alpha  occ. eigenvalues --   -0.23562
 Alpha virt. eigenvalues --   -0.00879   0.01311   0.08490   0.12832   0.14723
 Alpha virt. eigenvalues --    0.15997   0.18758   0.19428   0.20079   0.25030
 Alpha virt. eigenvalues --    0.29531   0.32065   0.36409   0.44423   0.51881

 Mulliken charges:
               1
     1  C   -0.088815
     2  C   -0.052952
     3  C   -0.129288
     4  C   -0.029096
     5  C   -0.087041
     6  C   -0.088642
     7  H    0.078742
     8  H    0.073551
     9  H    0.075080
    10  H    0.086364
    11  H    0.076682
    12  H    0.085415
 Sum of Mulliken charges =  -0.00000

 Dipole moment (field-independent basis, Debye):
    X=             -0.0436    Y=             -0.1291    Z=              0.0681  Tot=              0.1524
 Quadrupole moment (field-independent basis, Debye-Ang):
   XX=            -31.5250   YY=            -31.7769   ZZ=            -38.2278
   XY=             -0.1170   XZ=             -0.1871   YZ=              0.4041

 Normal termination of Gaussian 16 at Fri Nov 10 17:21:05 2023.
