 Gaussian 16, Revision B.01,
 Gaussian 16:  EM64L-G16RevB.01 20-Dec-2017

 ---------------------------------
 # TD=(NStates=1) B3LYP/6-31G(d,p)
 ---------------------------------

 -------
 ABSSPCT
 -------
 Symbolic Z-matrix:
 Charge =  0 Multiplicity = 1

                         Standard orientation:
 ---------------------------------------------------------------------
 Center     Atomic      Atomic             Coordinates (Angstroms)
 Number     Number       Type             X           Y           Z
 ---------------------------------------------------------------------
      1          6           0       -0.647064   -1.173560   -0.011875
      2          6           0       -1.409134   -0.125897    0.000277
      3          6           0       -0.770801    1.124322    0.019718
      4          6           0        0.666360    1.200647   -0.006998
      5          6           0        1.355991    0.102605    0.077088
      6          6           0        0.802010   -1.158234   -0.051375
      7          1           0       -1.040736   -2.127514    0.333717
      8          1           0        1.485325   -1.973933   -0.210064
      9          1           0        2.464794    0.336308   -0.034098
     10          1           0        1.062516    2.078028   -0.017520
     11          1           0       -1.572648    2.035251   -0.120899
     12          1           0       -2.383432   -0.167434   -0.112152
 ---------------------------------------------------------------------

 SCF Done:  E(RB3LYP) =  -232.178683660     A.U. after   13 cycles

 Excitation energies and oscillator strengths:

 Excited State   1:      Singlet-A      5.4720 eV  226.58 nm  f=0.0032  <S**2>=0.000
      20 -> 22         0.50897
      21 -> 22         0.14138
      21 -> 23        -0.46723
 This state for optimization and/or second-order correction.
 Total Energy, E(TD-HF/TD-DFT) =  -231.977591320
 Copying the excited state density for this state as the 1-particle RhoCI density.

 The electronic state is 1-A.
 Alpha  occ. eigenvalues --  -10.20039 -10.19054 -10.18194 -10.18063 -10.17100
 Alpha  occ. eigenvalues --  -10.16831  -0.86057  -0.76894  -0.72935  -0.61229
 Alpha  occ. eigenvalues --   -0.59270  -0.53172  -0.46069  -0.44088  -0.43086
 Alpha  occ. eigenvalues --   -0.40939  -0.37319  -0.33903  -0.32107  -0.26272
 Alpha  occ. eigenvalues --   -0.23252
 Alpha virt. eigenvalues --   -0.01528   0.01687   0.08698   0.12897   0.14039
 Alpha virt. eigenvalues --    0.17039   0.17136   0.19870   0.20408   0.28229
 Alpha virt. eigenvalues --    0.29717   0.32700   0.35361   0.45197   0.50644

 Mulliken charges:
               1
     1  C   -0.103868
     2  C   -0.032501
     3  C   -0.112698
     4  C   -0.042310
     5  C   -0.075292
     6  C   -0.101188
     7  H    0.081465
     8  H    0.095524
     9  H    0.070020
    10  H    0.073776
    11  H    0.066729
    12  H    0.080344
 Sum of Mulliken charges =   0.00000

 Dipole moment (field-independent basis, Debye):
    X=              0.0172    Y=              0.0315    Z=             -0.1071  Tot=              0.1129
 Quadrupole moment (field-independent basis, Debye-Ang):
   XX=            -31.3438   YY=            -32.5154   ZZ=            -37.9717
   XY=             -0.0352   XZ=             -0.2563   YZ=             -0.4110

 Normal termination of Gaussian 16 at Fri Nov 10 19:11:45 2023.
