 Gaussian 16, Revision B.01,
 Gaussian 16:  EM64L-G16RevB.01 20-Dec-2017

 ---------------------------------
 # TD=(NStates=1) B3LYP/6-31G(d,p)
 ---------------------------------

 -------
 ABSSPCT
 -------
 Symbolic Z-matrix:
 Charge =  0 Multiplicity = 1

                         Standard orientation:
 ---------------------------------------------------------------------
 Center     Atomic      Atomic             Coordinates (Angstroms)
 Number     Number       Type             X           Y           Z
 ---------------------------------------------------------------------
      1          6           0       -1.263177    0.537927    0.034635
      2          6           0       -0.168156    1.439502   -0.078389
      3          6           0        1.042057    0.830663   -0.003515
      4          6           0        1.335656   -0.553417    0.002941
      5          6           0        0.222151   -1.371906   -0.041296
      6          6           0       -1.176089   -0.844517   -0.016031
      7          1           0       -2.273277    0.784760    0.341148
      8          1           0       -2.088245   -1.593561   -0.011750
      9          1           0        0.353788   -2.486235   -0.003460
     10          1           0        2.416152   -0.905062    0.183900
     11          1           0        1.922597    1.492995    0.208407
     12          1           0       -0.285665    2.477585   -0.108318
 ---------------------------------------------------------------------

 SCF Done:  E(RB3LYP) =  -232.219145715     A.U. after   13 cycles

 Excitation energies and oscillator strengths:

 Excited State   1:      Singlet-A      5.3132 eV  233.35 nm  f=0.0024  <S**2>=0.000
      20 -> 22        -0.32615
      20 -> 23        -0.33634
      21 -> 22         0.43599
      21 -> 23        -0.29967
 This state for optimization and/or second-order correction.
 Total Energy, E(TD-HF/TD-DFT) =  -232.023889563
 Copying the excited state density for this state as the 1-particle RhoCI density.

 The electronic state is 1-A.
 Alpha  occ. eigenvalues --  -10.20392 -10.19955 -10.19610 -10.19121 -10.19009
 Alpha  occ. eigenvalues --  -10.18868  -0.84426  -0.74083  -0.73470  -0.59968
 Alpha  occ. eigenvalues --   -0.58351  -0.51283  -0.45552  -0.43538  -0.42055
 Alpha  occ. eigenvalues --   -0.40832  -0.36104  -0.33511  -0.32461  -0.24698
 Alpha  occ. eigenvalues --   -0.24162
 Alpha virt. eigenvalues --   -0.00651   0.00219   0.07780   0.12381   0.13487
 Alpha virt. eigenvalues --    0.15149   0.16757   0.17576   0.18632   0.27128
 Alpha virt. eigenvalues --    0.28288   0.32274   0.33453   0.43810   0.48882

 Mulliken charges:
               1
     1  C   -0.102311
     2  C   -0.056092
     3  C   -0.099812
     4  C   -0.065943
     5  C   -0.108783
     6  C   -0.088576
     7  H    0.084125
     8  H    0.096512
     9  H    0.077377
    10  H    0.096060
    11  H    0.073264
    12  H    0.094178
 Sum of Mulliken charges =  -0.00000

 Dipole moment (field-independent basis, Debye):
    X=             -0.0223    Y=              0.0472    Z=              0.3507  Tot=              0.3546
 Quadrupole moment (field-independent basis, Debye-Ang):
   XX=            -31.6465   YY=            -31.7593   ZZ=            -38.6799
   XY=              0.2798   XZ=              0.1182   YZ=              0.0551

 Normal termination of Gaussian 16 at Fri Nov 10 17:52:55 2023.
