 Gaussian 16, Revision B.01,
 Gaussian 16:  EM64L-G16RevB.01 20-Dec-2017

 ---------------------------------
 # TD=(NStates=1) B3LYP/6-31G(d,p)
 ---------------------------------

 -------
 ABSSPCT
 -------
 Symbolic Z-matrix:
 Charge =  0 Multiplicity = 1

                         Standard orientation:
 ---------------------------------------------------------------------
 Center     Atomic      Atomic             Coordinates (Angstroms)
 Number     Number       Type             X           Y           Z
 ---------------------------------------------------------------------
      1          6           0       -1.237926   -0.623386    0.006770
      2          6           0       -1.227569    0.669696   -0.005228
      3          6           0       -0.032821    1.332834   -0.012323
      4          6           0        1.300687    0.698544   -0.004119
      5          6           0        1.203301   -0.695665    0.082660
      6          6           0        0.017078   -1.383740   -0.092514
      7          1           0       -2.121148   -1.236265    0.185177
      8          1           0       -0.078020   -2.448716   -0.060733
      9          1           0        1.925794   -1.424904   -0.003871
     10          1           0        2.197373    1.278923    0.056662
     11          1           0       -0.023502    2.593865   -0.165534
     12          1           0       -2.036991    1.247396    0.136824
 ---------------------------------------------------------------------

 SCF Done:  E(RB3LYP) =  -232.194823732     A.U. after   13 cycles

 Excitation energies and oscillator strengths:

 Excited State   1:      Singlet-A      5.4500 eV  227.49 nm  f=0.0025  <S**2>=0.000
      20 -> 22        -0.48547
      21 -> 22         0.13604
      21 -> 23         0.49207
 This state for optimization and/or second-order correction.
 Total Energy, E(TD-HF/TD-DFT) =  -231.994538420
 Copying the excited state density for this state as the 1-particle RhoCI density.

 The electronic state is 1-A.
 Alpha  occ. eigenvalues --  -10.20768 -10.20033 -10.18647 -10.18365 -10.18358
 Alpha  occ. eigenvalues --  -10.17011  -0.85223  -0.76071  -0.72573  -0.61013
 Alpha  occ. eigenvalues --   -0.58921  -0.52348  -0.45838  -0.44899  -0.42714
 Alpha  occ. eigenvalues --   -0.39960  -0.36621  -0.33972  -0.31779  -0.26231
 Alpha  occ. eigenvalues --   -0.23357
 Alpha virt. eigenvalues --   -0.01523   0.01267   0.07886   0.13324   0.14763
 Alpha virt. eigenvalues --    0.15587   0.16641   0.18689   0.20339   0.26464
 Alpha virt. eigenvalues --    0.28611   0.32549   0.34528   0.45348   0.49221

 Mulliken charges:
               1
     1  C   -0.093222
     2  C   -0.022759
     3  C   -0.109844
     4  C   -0.086305
     5  C   -0.074678
     6  C   -0.101564
     7  H    0.080897
     8  H    0.087011
     9  H    0.082012
    10  H    0.099368
    11  H    0.055456
    12  H    0.083628
 Sum of Mulliken charges =  -0.00000

 Dipole moment (field-independent basis, Debye):
    X=             -0.0801    Y=             -0.1904    Z=              0.1312  Tot=              0.2447
 Quadrupole moment (field-independent basis, Debye-Ang):
   XX=            -31.8153   YY=            -31.6726   ZZ=            -38.4093
   XY=              0.2315   XZ=             -0.4246   YZ=             -0.1341

 Normal termination of Gaussian 16 at Fri Nov 10 18:00:11 2023.
