 Gaussian 16, Revision B.01,
 Gaussian 16:  EM64L-G16RevB.01 20-Dec-2017

 ---------------------------------
 # TD=(NStates=1) B3LYP/6-31G(d,p)
 ---------------------------------

 -------
 ABSSPCT
 -------
 Symbolic Z-matrix:
 Charge =  0 Multiplicity = 1

                         Standard orientation:
 ---------------------------------------------------------------------
 Center     Atomic      Atomic             Coordinates (Angstroms)
 Number     Number       Type             X           Y           Z
 ---------------------------------------------------------------------
      1          6           0        0.541773    1.200427   -0.073400
      2          6           0       -0.891151    1.037033    0.027373
      3          6           0       -1.409231   -0.172829    0.046932
      4          6           0       -0.567986   -1.237036   -0.034170
      5          6           0        0.847911   -1.078375   -0.003742
      6          6           0        1.437748    0.190662    0.030077
      7          1           0        0.976851    2.249650   -0.039994
      8          1           0        2.592618    0.320842    0.280780
      9          1           0        1.697484   -1.833551   -0.182398
     10          1           0       -1.028159   -2.233567    0.048168
     11          1           0       -2.556309   -0.234479   -0.001605
     12          1           0       -1.436869    2.091813   -0.063374
 ---------------------------------------------------------------------

 SCF Done:  E(RB3LYP) =  -232.206905830     A.U. after   13 cycles

 Excitation energies and oscillator strengths:

 Excited State   1:      Singlet-A      5.5375 eV  223.90 nm  f=0.0022  <S**2>=0.000
      20 -> 22         0.45761
      21 -> 23         0.53381
 This state for optimization and/or second-order correction.
 Total Energy, E(TD-HF/TD-DFT) =  -232.003406045
 Copying the excited state density for this state as the 1-particle RhoCI density.

 The electronic state is 1-A.
 Alpha  occ. eigenvalues --  -10.19844 -10.19505 -10.19457 -10.19361 -10.18972
 Alpha  occ. eigenvalues --  -10.18873  -0.85821  -0.75787  -0.72689  -0.60250
 Alpha  occ. eigenvalues --   -0.58356  -0.51040  -0.44967  -0.43640  -0.42206
 Alpha  occ. eigenvalues --   -0.39468  -0.36944  -0.33505  -0.32316  -0.26100
 Alpha  occ. eigenvalues --   -0.23894
 Alpha virt. eigenvalues --   -0.00620   0.00694   0.06642   0.10955   0.12908
 Alpha virt. eigenvalues --    0.15847   0.16643   0.17343   0.17965   0.28272
 Alpha virt. eigenvalues --    0.29951   0.32107   0.33856   0.45859   0.51282

 Mulliken charges:
               1
     1  C   -0.093140
     2  C   -0.073813
     3  C   -0.072292
     4  C   -0.100465
     5  C   -0.096332
     6  C   -0.076640
     7  H    0.071024
     8  H    0.094618
     9  H    0.085783
    10  H    0.087957
    11  H    0.090407
    12  H    0.082893
 Sum of Mulliken charges =  -0.00000

 Dipole moment (field-independent basis, Debye):
    X=              0.0652    Y=              0.0688    Z=              0.0323  Tot=              0.1002
 Quadrupole moment (field-independent basis, Debye-Ang):
   XX=            -30.9859   YY=            -33.0259   ZZ=            -38.6192
   XY=             -0.0044   XZ=              0.3377   YZ=              0.0682

 Normal termination of Gaussian 16 at Fri Nov 10 17:35:48 2023.
