 Gaussian 16, Revision B.01,
 Gaussian 16:  EM64L-G16RevB.01 20-Dec-2017

 ---------------------------------
 # TD=(NStates=1) B3LYP/6-31G(d,p)
 ---------------------------------

 -------
 ABSSPCT
 -------
 Symbolic Z-matrix:
 Charge =  0 Multiplicity = 1

                         Standard orientation:
 ---------------------------------------------------------------------
 Center     Atomic      Atomic             Coordinates (Angstroms)
 Number     Number       Type             X           Y           Z
 ---------------------------------------------------------------------
      1          6           0       -0.528410   -1.266839    0.048603
      2          6           0        0.853066   -1.078655    0.037577
      3          6           0        1.381860    0.199522   -0.078906
      4          6           0        0.482632    1.320511    0.044916
      5          6           0       -0.878490    1.053297   -0.022194
      6          6           0       -1.353556   -0.233264   -0.131238
      7          1           0       -0.816807   -2.309437    0.183970
      8          1           0       -2.496086   -0.356380   -0.007247
      9          1           0       -1.516390    1.880186    0.393759
     10          1           0        0.868358    2.367097    0.021112
     11          1           0        2.551924    0.321314   -0.013960
     12          1           0        1.666388   -1.870214    0.029806
 ---------------------------------------------------------------------

 SCF Done:  E(RB3LYP) =  -232.222966780     A.U. after   12 cycles

 Excitation energies and oscillator strengths:

 Excited State   1:      Singlet-A      5.4284 eV  228.40 nm  f=0.0019  <S**2>=0.000
      20 -> 23         0.44371
      21 -> 22         0.53365
 This state for optimization and/or second-order correction.
 Total Energy, E(TD-HF/TD-DFT) =  -232.023475759
 Copying the excited state density for this state as the 1-particle RhoCI density.

 The electronic state is 1-A.
 Alpha  occ. eigenvalues --  -10.19841 -10.19404 -10.19095 -10.19083 -10.18911
 Alpha  occ. eigenvalues --  -10.18777  -0.85561  -0.74185  -0.74120  -0.59951
 Alpha  occ. eigenvalues --   -0.58762  -0.51236  -0.44902  -0.44238  -0.41231
 Alpha  occ. eigenvalues --   -0.40855  -0.36549  -0.33559  -0.32922  -0.25181
 Alpha  occ. eigenvalues --   -0.24491
 Alpha virt. eigenvalues --   -0.00329  -0.00073   0.07274   0.12250   0.13526
 Alpha virt. eigenvalues --    0.15138   0.17020   0.17853   0.18599   0.29202
 Alpha virt. eigenvalues --    0.29633   0.32097   0.33069   0.46394   0.50907

 Mulliken charges:
               1
     1  C   -0.069816
     2  C   -0.086004
     3  C   -0.088899
     4  C   -0.092736
     5  C   -0.093671
     6  C   -0.086422
     7  H    0.088946
     8  H    0.081674
     9  H    0.091418
    10  H    0.089331
    11  H    0.078846
    12  H    0.087334
 Sum of Mulliken charges =  -0.00000

 Dipole moment (field-independent basis, Debye):
    X=              0.0690    Y=             -0.0729    Z=              0.3605  Tot=              0.3742
 Quadrupole moment (field-independent basis, Debye-Ang):
   XX=            -32.0381   YY=            -32.0363   ZZ=            -38.4768
   XY=             -0.1493   XZ=             -0.5672   YZ=              0.2528

 Normal termination of Gaussian 16 at Fri Nov 10 19:12:51 2023.
