 Gaussian 16, Revision B.01,
 Gaussian 16:  EM64L-G16RevB.01 20-Dec-2017

 ---------------------------------
 # TD=(NStates=1) B3LYP/6-31G(d,p)
 ---------------------------------

 -------
 ABSSPCT
 -------
 Symbolic Z-matrix:
 Charge =  0 Multiplicity = 1

                         Standard orientation:
 ---------------------------------------------------------------------
 Center     Atomic      Atomic             Coordinates (Angstroms)
 Number     Number       Type             X           Y           Z
 ---------------------------------------------------------------------
      1          6           0        1.158351   -0.829457    0.025211
      2          6           0        1.341955    0.550368    0.004824
      3          6           0        0.081488    1.440329   -0.024202
      4          6           0       -1.179210    0.801617   -0.007814
      5          6           0       -1.307212   -0.594322    0.003856
      6          6           0       -0.130899   -1.379780   -0.020139
      7          1           0        2.049631   -1.509267   -0.019372
      8          1           0       -0.236501   -2.400757   -0.034593
      9          1           0       -2.388151   -0.932427    0.071231
     10          1           0       -1.989999    1.309246    0.045023
     11          1           0        0.381618    2.565450    0.032359
     12          1           0        2.396570    1.035224    0.014937
 ---------------------------------------------------------------------

 SCF Done:  E(RB3LYP) =  -232.211032531     A.U. after   13 cycles

 Excitation energies and oscillator strengths:

 Excited State   1:      Singlet-A      5.2670 eV  235.40 nm  f=0.0001  <S**2>=0.000
      20 -> 22         0.50057
      21 -> 23        -0.49781
 This state for optimization and/or second-order correction.
 Total Energy, E(TD-HF/TD-DFT) =  -232.017472156
 Copying the excited state density for this state as the 1-particle RhoCI density.

 The electronic state is 1-A.
 Alpha  occ. eigenvalues --  -10.21092 -10.20684 -10.19667 -10.19456 -10.18719
 Alpha  occ. eigenvalues --  -10.18112  -0.83510  -0.74667  -0.72211  -0.60128
 Alpha  occ. eigenvalues --   -0.59022  -0.51329  -0.46267  -0.43495  -0.41855
 Alpha  occ. eigenvalues --   -0.40356  -0.35199  -0.34622  -0.32661  -0.25253
 Alpha  occ. eigenvalues --   -0.23492
 Alpha virt. eigenvalues --   -0.01380   0.00473   0.08348   0.12914   0.13548
 Alpha virt. eigenvalues --    0.14743   0.15701   0.18428   0.19805   0.25204
 Alpha virt. eigenvalues --    0.30147   0.30316   0.31929   0.46805   0.50732

 Mulliken charges:
               1
     1  C   -0.068612
     2  C   -0.111573
     3  C   -0.098778
     4  C   -0.059364
     5  C   -0.086215
     6  C   -0.089577
     7  H    0.087017
     8  H    0.082636
     9  H    0.090972
    10  H    0.072232
    11  H    0.091748
    12  H    0.089514
 Sum of Mulliken charges =  -0.00000

 Dipole moment (field-independent basis, Debye):
    X=             -0.0578    Y=             -0.0234    Z=              0.0703  Tot=              0.0940
 Quadrupole moment (field-independent basis, Debye-Ang):
   XX=            -30.7930   YY=            -31.8832   ZZ=            -38.9283
   XY=              0.1710   XZ=             -0.2070   YZ=              0.1843

 Normal termination of Gaussian 16 at Fri Nov 10 19:04:52 2023.
