 Gaussian 16, Revision B.01,
 Gaussian 16:  EM64L-G16RevB.01 20-Dec-2017

 ---------------------------------
 # TD=(NStates=1) B3LYP/6-31G(d,p)
 ---------------------------------

 -------
 ABSSPCT
 -------
 Symbolic Z-matrix:
 Charge =  0 Multiplicity = 1

                         Standard orientation:
 ---------------------------------------------------------------------
 Center     Atomic      Atomic             Coordinates (Angstroms)
 Number     Number       Type             X           Y           Z
 ---------------------------------------------------------------------
      1          6           0       -0.360200   -1.333504    0.061874
      2          6           0        1.020036   -0.966825   -0.003197
      3          6           0        1.434182    0.369474   -0.029089
      4          6           0        0.385165    1.380307    0.067686
      5          6           0       -1.059889    0.983817   -0.055133
      6          6           0       -1.420433   -0.401022   -0.072438
      7          1           0       -0.633807   -2.557214    0.156587
      8          1           0       -2.442264   -0.681536    0.058370
      9          1           0       -1.800051    1.849254    0.058552
     10          1           0        0.565992    2.476003    0.117847
     11          1           0        2.540868    0.549301   -0.088985
     12          1           0        1.776092   -1.829286   -0.120593
 ---------------------------------------------------------------------

 SCF Done:  E(RB3LYP) =  -232.215583420     A.U. after   13 cycles

 Excitation energies and oscillator strengths:

 Excited State   1:      Singlet-A      5.0815 eV  243.99 nm  f=0.0023  <S**2>=0.000
      20 -> 22        -0.44888
      21 -> 22        -0.13147
      21 -> 23         0.52144
 This state for optimization and/or second-order correction.
 Total Energy, E(TD-HF/TD-DFT) =  -232.028842098
 Copying the excited state density for this state as the 1-particle RhoCI density.

 The electronic state is 1-A.
 Alpha  occ. eigenvalues --  -10.21141 -10.21064 -10.20993 -10.20622 -10.20134
 Alpha  occ. eigenvalues --  -10.19953  -0.82955  -0.73914  -0.71792  -0.59379
 Alpha  occ. eigenvalues --   -0.58313  -0.50130  -0.45588  -0.42924  -0.41986
 Alpha  occ. eigenvalues --   -0.39280  -0.34975  -0.33828  -0.33289  -0.25080
 Alpha  occ. eigenvalues --   -0.23546
 Alpha virt. eigenvalues --   -0.01334  -0.00749   0.06778   0.12309   0.12924
 Alpha virt. eigenvalues --    0.13433   0.15822   0.16568   0.17188   0.25967
 Alpha virt. eigenvalues --    0.28580   0.29320   0.30481   0.47268   0.48971

 Mulliken charges:
               1
     1  C   -0.082395
     2  C   -0.083432
     3  C   -0.083046
     4  C   -0.105537
     5  C   -0.102411
     6  C   -0.081186
     7  H    0.069424
     8  H    0.098179
     9  H    0.092850
    10  H    0.091607
    11  H    0.097278
    12  H    0.088670
 Sum of Mulliken charges =  -0.00000

 Dipole moment (field-independent basis, Debye):
    X=              0.0081    Y=              0.0914    Z=              0.0951  Tot=              0.1321
 Quadrupole moment (field-independent basis, Debye-Ang):
   XX=            -31.1737   YY=            -31.9191   ZZ=            -39.3443
   XY=             -0.3153   XZ=             -0.5943   YZ=              0.1856

 Normal termination of Gaussian 16 at Fri Nov 10 18:11:06 2023.
