 Gaussian 16, Revision B.01,
 Gaussian 16:  EM64L-G16RevB.01 20-Dec-2017

 ---------------------------------
 # TD=(NStates=1) B3LYP/6-31G(d,p)
 ---------------------------------

 -------
 ABSSPCT
 -------
 Symbolic Z-matrix:
 Charge =  0 Multiplicity = 1

                         Standard orientation:
 ---------------------------------------------------------------------
 Center     Atomic      Atomic             Coordinates (Angstroms)
 Number     Number       Type             X           Y           Z
 ---------------------------------------------------------------------
      1          6           0       -0.609163    1.198544   -0.007519
      2          6           0        0.762169    1.182337   -0.038297
      3          6           0        1.435352   -0.100059    0.020690
      4          6           0        0.644975   -1.259730    0.052731
      5          6           0       -0.766774   -1.125773   -0.096699
      6          6           0       -1.430477    0.094854    0.005785
      7          1           0       -1.030111    2.283504    0.429485
      8          1           0       -2.583416    0.112485   -0.060949
      9          1           0       -1.483211   -1.931917   -0.052567
     10          1           0        1.052100   -2.195110    0.444349
     11          1           0        2.415232   -0.096657   -0.351956
     12          1           0        1.412906    1.886660   -0.028508
 ---------------------------------------------------------------------

 SCF Done:  E(RB3LYP) =  -232.189040112     A.U. after   13 cycles

 Excitation energies and oscillator strengths:

 Excited State   1:      Singlet-A      5.1060 eV  242.82 nm  f=0.0018  <S**2>=0.000
      20 -> 23         0.45299
      21 -> 22         0.53098
 This state for optimization and/or second-order correction.
 Total Energy, E(TD-HF/TD-DFT) =  -232.001398019
 Copying the excited state density for this state as the 1-particle RhoCI density.

 The electronic state is 1-A.
 Alpha  occ. eigenvalues --  -10.19885 -10.19802 -10.19604 -10.19156 -10.18785
 Alpha  occ. eigenvalues --  -10.17806  -0.84811  -0.74735  -0.73694  -0.60564
 Alpha  occ. eigenvalues --   -0.59618  -0.51218  -0.46708  -0.44572  -0.41115
 Alpha  occ. eigenvalues --   -0.40405  -0.37478  -0.35032  -0.30275  -0.24590
 Alpha  occ. eigenvalues --   -0.24460
 Alpha virt. eigenvalues --   -0.01533  -0.00656   0.08329   0.11475   0.14113
 Alpha virt. eigenvalues --    0.16111   0.16296   0.18171   0.20288   0.27543
 Alpha virt. eigenvalues --    0.29432   0.30950   0.33970   0.45652   0.49261

 Mulliken charges:
               1
     1  C   -0.080949
     2  C   -0.048608
     3  C   -0.115714
     4  C   -0.094233
     5  C   -0.085503
     6  C   -0.082503
     7  H    0.055128
     8  H    0.098654
     9  H    0.082681
    10  H    0.096704
    11  H    0.097786
    12  H    0.076558
 Sum of Mulliken charges =  -0.00000

 Dipole moment (field-independent basis, Debye):
    X=              0.0432    Y=             -0.1801    Z=              0.1519  Tot=              0.2396
 Quadrupole moment (field-independent basis, Debye-Ang):
   XX=            -31.1634   YY=            -33.1546   ZZ=            -38.1576
   XY=              1.0391   XZ=             -0.4591   YZ=             -0.1555

 Normal termination of Gaussian 16 at Fri Nov 10 18:15:59 2023.
