 Gaussian 16, Revision B.01,
 Gaussian 16:  EM64L-G16RevB.01 20-Dec-2017

 ---------------------------------
 # TD=(NStates=1) B3LYP/6-31G(d,p)
 ---------------------------------

 -------
 ABSSPCT
 -------
 Symbolic Z-matrix:
 Charge =  0 Multiplicity = 1

                         Standard orientation:
 ---------------------------------------------------------------------
 Center     Atomic      Atomic             Coordinates (Angstroms)
 Number     Number       Type             X           Y           Z
 ---------------------------------------------------------------------
      1          6           0        1.440718   -0.158094    0.018333
      2          6           0        0.841323    1.114613   -0.009429
      3          6           0       -0.639065    1.284547   -0.065369
      4          6           0       -1.444219    0.108432    0.083356
      5          6           0       -0.748036   -1.117980    0.094898
      6          6           0        0.581700   -1.282066   -0.092692
      7          1           0        2.528656   -0.066448    0.041044
      8          1           0        0.942748   -2.238271   -0.089878
      9          1           0       -1.572407   -1.797054   -0.049137
     10          1           0       -2.576895    0.098391   -0.181872
     11          1           0       -1.058304    2.258241   -0.147289
     12          1           0        1.541665    2.048433    0.252552
 ---------------------------------------------------------------------

 SCF Done:  E(RB3LYP) =  -232.205683475     A.U. after   13 cycles

 Excitation energies and oscillator strengths:

 Excited State   1:      Singlet-A      5.1778 eV  239.45 nm  f=0.0018  <S**2>=0.000
      20 -> 22         0.34844
      20 -> 23        -0.31689
      21 -> 22         0.39323
      21 -> 23         0.35072
 This state for optimization and/or second-order correction.
 Total Energy, E(TD-HF/TD-DFT) =  -232.015404075
 Copying the excited state density for this state as the 1-particle RhoCI density.

 The electronic state is 1-A.
 Alpha  occ. eigenvalues --  -10.20606 -10.19990 -10.19947 -10.19728 -10.18777
 Alpha  occ. eigenvalues --  -10.18420  -0.84172  -0.74114  -0.73280  -0.61208
 Alpha  occ. eigenvalues --   -0.57776  -0.51398  -0.45944  -0.44380  -0.41978
 Alpha  occ. eigenvalues --   -0.39628  -0.35521  -0.33981  -0.32517  -0.24810
 Alpha  occ. eigenvalues --   -0.24168
 Alpha virt. eigenvalues --   -0.01205  -0.00498   0.08160   0.11749   0.14234
 Alpha virt. eigenvalues --    0.15030   0.16693   0.17718   0.19483   0.27128
 Alpha virt. eigenvalues --    0.29106   0.29720   0.31936   0.47101   0.49163

 Mulliken charges:
               1
     1  C   -0.081968
     2  C   -0.101713
     3  C   -0.088249
     4  C   -0.108141
     5  C   -0.069310
     6  C   -0.078850
     7  H    0.096688
     8  H    0.087435
     9  H    0.084228
    10  H    0.091994
    11  H    0.088572
    12  H    0.079315
 Sum of Mulliken charges =  -0.00000

 Dipole moment (field-independent basis, Debye):
    X=             -0.0087    Y=              0.0033    Z=             -0.1379  Tot=              0.1382
 Quadrupole moment (field-independent basis, Debye-Ang):
   XX=            -30.9708   YY=            -32.5390   ZZ=            -38.7267
   XY=              0.2271   XZ=              0.9527   YZ=              0.3443

 Normal termination of Gaussian 16 at Fri Nov 10 16:27:32 2023.
