 Gaussian 16, Revision B.01,
 Gaussian 16:  EM64L-G16RevB.01 20-Dec-2017

 ---------------------------------
 # TD=(NStates=1) B3LYP/6-31G(d,p)
 ---------------------------------

 -------
 ABSSPCT
 -------
 Symbolic Z-matrix:
 Charge =  0 Multiplicity = 1

                         Standard orientation:
 ---------------------------------------------------------------------
 Center     Atomic      Atomic             Coordinates (Angstroms)
 Number     Number       Type             X           Y           Z
 ---------------------------------------------------------------------
      1          6           0       -1.204900    0.739685   -0.016267
      2          6           0       -1.278472   -0.665562   -0.051545
      3          6           0       -0.084041   -1.339044   -0.037107
      4          6           0        1.250387   -0.742920    0.025245
      5          6           0        1.272442    0.706741    0.011392
      6          6           0        0.057594    1.307154   -0.001968
      7          1           0       -2.187476    1.295385    0.216912
      8          1           0       -0.024669    2.442074    0.101728
      9          1           0        2.172302    1.187393   -0.217725
     10          1           0        2.189809   -1.442525    0.104393
     11          1           0       -0.129230   -2.344952    0.186694
     12          1           0       -2.098799   -1.173694    0.029498
 ---------------------------------------------------------------------

 SCF Done:  E(RB3LYP) =  -232.208198863     A.U. after   13 cycles

 Excitation energies and oscillator strengths:

 Excited State   1:      Singlet-A      5.2883 eV  234.45 nm  f=0.0077  <S**2>=0.000
      20 -> 22         0.40617
      20 -> 23        -0.22156
      21 -> 22        -0.36958
      21 -> 23        -0.38600
 This state for optimization and/or second-order correction.
 Total Energy, E(TD-HF/TD-DFT) =  -232.013855849
 Copying the excited state density for this state as the 1-particle RhoCI density.

 The electronic state is 1-A.
 Alpha  occ. eigenvalues --  -10.20771 -10.19442 -10.19056 -10.18851 -10.18186
 Alpha  occ. eigenvalues --  -10.17680  -0.84645  -0.75225  -0.72840  -0.60764
 Alpha  occ. eigenvalues --   -0.59029  -0.51654  -0.46974  -0.44348  -0.41861
 Alpha  occ. eigenvalues --   -0.39704  -0.36587  -0.34760  -0.31882  -0.25270
 Alpha  occ. eigenvalues --   -0.23823
 Alpha virt. eigenvalues --   -0.01338   0.00620   0.08621   0.12558   0.14295
 Alpha virt. eigenvalues --    0.16161   0.17398   0.17635   0.20827   0.27936
 Alpha virt. eigenvalues --    0.28981   0.30932   0.33073   0.47384   0.51566

 Mulliken charges:
               1
     1  C   -0.090908
     2  C   -0.048868
     3  C   -0.084489
     4  C   -0.113975
     5  C   -0.077554
     6  C   -0.083400
     7  H    0.087890
     8  H    0.072412
     9  H    0.096289
    10  H    0.091867
    11  H    0.076110
    12  H    0.074626
 Sum of Mulliken charges =  -0.00000

 Dipole moment (field-independent basis, Debye):
    X=             -0.0920    Y=             -0.1586    Z=              0.2342  Tot=              0.2975
 Quadrupole moment (field-independent basis, Debye-Ang):
   XX=            -30.8725   YY=            -32.4487   ZZ=            -38.4361
   XY=              0.0402   XZ=             -0.7094   YZ=             -0.3463

 Normal termination of Gaussian 16 at Fri Nov 10 16:31:36 2023.
