 Gaussian 16, Revision B.01,
 Gaussian 16:  EM64L-G16RevB.01 20-Dec-2017

 ---------------------------------
 # TD=(NStates=1) B3LYP/6-31G(d,p)
 ---------------------------------

 -------
 ABSSPCT
 -------
 Symbolic Z-matrix:
 Charge =  0 Multiplicity = 1

                         Standard orientation:
 ---------------------------------------------------------------------
 Center     Atomic      Atomic             Coordinates (Angstroms)
 Number     Number       Type             X           Y           Z
 ---------------------------------------------------------------------
      1          6           0       -1.445508   -0.031460    0.010709
      2          6           0       -0.734355    1.095813    0.056289
      3          6           0        0.593906    1.203795   -0.027736
      4          6           0        1.399049    0.094203   -0.017401
      5          6           0        0.757458   -1.119304    0.054323
      6          6           0       -0.586118   -1.287441   -0.067475
      7          1           0       -2.602508   -0.145042    0.006992
      8          1           0       -1.054992   -2.138795   -0.081866
      9          1           0        1.293953   -1.910631    0.163483
     10          1           0        2.486795    0.043819   -0.061687
     11          1           0        1.187044    2.137682   -0.050344
     12          1           0       -1.216886    2.279329   -0.028828
 ---------------------------------------------------------------------

 SCF Done:  E(RB3LYP) =  -232.181546364     A.U. after   13 cycles

 Excitation energies and oscillator strengths:

 Excited State   1:      Singlet-A      5.6001 eV  221.40 nm  f=0.0026  <S**2>=0.000
      20 -> 22         0.54057
      21 -> 23        -0.44692
 This state for optimization and/or second-order correction.
 Total Energy, E(TD-HF/TD-DFT) =  -231.975746230
 Copying the excited state density for this state as the 1-particle RhoCI density.

 The electronic state is 1-A.
 Alpha  occ. eigenvalues --  -10.20265 -10.19451 -10.18356 -10.18191 -10.18125
 Alpha  occ. eigenvalues --  -10.16709  -0.85825  -0.75433  -0.73961  -0.61333
 Alpha  occ. eigenvalues --   -0.59304  -0.52290  -0.46837  -0.44279  -0.41543
 Alpha  occ. eigenvalues --   -0.40592  -0.36700  -0.35632  -0.30755  -0.25704
 Alpha  occ. eigenvalues --   -0.24155
 Alpha virt. eigenvalues --   -0.01025   0.01738   0.06671   0.13345   0.13705
 Alpha virt. eigenvalues --    0.16611   0.17076   0.18441   0.21039   0.26801
 Alpha virt. eigenvalues --    0.31800   0.32484   0.34589   0.45963   0.51906

 Mulliken charges:
               1
     1  C   -0.121277
     2  C   -0.049412
     3  C   -0.077411
     4  C   -0.079705
     5  C   -0.050684
     6  C   -0.078608
     7  H    0.096507
     8  H    0.073681
     9  H    0.062716
    10  H    0.087436
    11  H    0.085475
    12  H    0.051280
 Sum of Mulliken charges =  -0.00000

 Dipole moment (field-independent basis, Debye):
    X=              0.2309    Y=             -0.3544    Z=             -0.0226  Tot=              0.4236
 Quadrupole moment (field-independent basis, Debye-Ang):
   XX=            -31.2212   YY=            -32.2650   ZZ=            -38.2824
   XY=              0.7216   XZ=              0.0998   YZ=             -0.2424

 Normal termination of Gaussian 16 at Fri Nov 10 16:44:07 2023.
