 Gaussian 16, Revision B.01,
 Gaussian 16:  EM64L-G16RevB.01 20-Dec-2017

 ---------------------------------
 # TD=(NStates=1) B3LYP/6-31G(d,p)
 ---------------------------------

 -------
 ABSSPCT
 -------
 Symbolic Z-matrix:
 Charge =  0 Multiplicity = 1

                         Standard orientation:
 ---------------------------------------------------------------------
 Center     Atomic      Atomic             Coordinates (Angstroms)
 Number     Number       Type             X           Y           Z
 ---------------------------------------------------------------------
      1          6           0        0.044922    1.366511    0.063628
      2          6           0       -1.212522    0.800558   -0.028545
      3          6           0       -1.224715   -0.685430   -0.036200
      4          6           0       -0.042505   -1.385408    0.081360
      5          6           0        1.167652   -0.702867   -0.025115
      6          6           0        1.272062    0.624797   -0.045960
      7          1           0        0.096814    2.477211    0.122402
      8          1           0        2.298659    1.109257   -0.046375
      9          1           0        2.140978   -1.312800   -0.062843
     10          1           0       -0.098026   -2.360396    0.062691
     11          1           0       -2.218017   -1.230077   -0.074248
     12          1           0       -2.249769    1.207832   -0.056635
 ---------------------------------------------------------------------

 SCF Done:  E(RB3LYP) =  -232.223265938     A.U. after   14 cycles

 Excitation energies and oscillator strengths:

 Excited State   1:      Singlet-A      5.5003 eV  225.41 nm  f=0.0000  <S**2>=0.000
      20 -> 22         0.50294
      21 -> 23         0.49646
 This state for optimization and/or second-order correction.
 Total Energy, E(TD-HF/TD-DFT) =  -232.021134494
 Copying the excited state density for this state as the 1-particle RhoCI density.

 The electronic state is 1-A.
 Alpha  occ. eigenvalues --  -10.19903 -10.19690 -10.19573 -10.19218 -10.18755
 Alpha  occ. eigenvalues --  -10.17429  -0.84750  -0.74144  -0.73882  -0.60078
 Alpha  occ. eigenvalues --   -0.58888  -0.51726  -0.45425  -0.44331  -0.41623
 Alpha  occ. eigenvalues --   -0.41067  -0.36085  -0.34152  -0.32455  -0.24909
 Alpha  occ. eigenvalues --   -0.24564
 Alpha virt. eigenvalues --   -0.00140   0.00287   0.08080   0.12782   0.14495
 Alpha virt. eigenvalues --    0.15626   0.16496   0.17661   0.19964   0.26834
 Alpha virt. eigenvalues --    0.29771   0.32367   0.33198   0.45714   0.51138

 Mulliken charges:
               1
     1  C   -0.115423
     2  C   -0.073586
     3  C   -0.115571
     4  C   -0.039145
     5  C   -0.088378
     6  C   -0.069083
     7  H    0.080484
     8  H    0.092652
     9  H    0.075009
    10  H    0.072943
    11  H    0.082124
    12  H    0.097974
 Sum of Mulliken charges =  -0.00000

 Dipole moment (field-independent basis, Debye):
    X=             -0.0607    Y=             -0.1037    Z=             -0.0218  Tot=              0.1221
 Quadrupole moment (field-independent basis, Debye-Ang):
   XX=            -30.9456   YY=            -32.2443   ZZ=            -38.6363
   XY=              0.2291   XZ=              0.0779   YZ=              0.1332

 Normal termination of Gaussian 16 at Fri Nov 10 18:18:20 2023.
