 Gaussian 16, Revision B.01,
 Gaussian 16:  EM64L-G16RevB.01 20-Dec-2017

 ---------------------------------
 # TD=(NStates=1) B3LYP/6-31G(d,p)
 ---------------------------------

 -------
 ABSSPCT
 -------
 Symbolic Z-matrix:
 Charge =  0 Multiplicity = 1

                         Standard orientation:
 ---------------------------------------------------------------------
 Center     Atomic      Atomic             Coordinates (Angstroms)
 Number     Number       Type             X           Y           Z
 ---------------------------------------------------------------------
      1          6           0       -0.224288    1.318069   -0.083846
      2          6           0        1.125196    0.895390   -0.046563
      3          6           0        1.389419   -0.508036    0.041760
      4          6           0        0.221455   -1.249983   -0.014563
      5          6           0       -1.159089   -0.844185    0.010796
      6          6           0       -1.347826    0.446156    0.101773
      7          1           0       -0.429104    2.372291    0.168638
      8          1           0       -2.475641    0.852644   -0.133983
      9          1           0       -1.932697   -1.574674   -0.091715
     10          1           0        0.374712   -2.370847   -0.168720
     11          1           0        2.406265   -1.125492    0.141382
     12          1           0        2.027257    1.501606    0.028256
 ---------------------------------------------------------------------

 SCF Done:  E(RB3LYP) =  -232.201038663     A.U. after   13 cycles

 Excitation energies and oscillator strengths:

 Excited State   1:      Singlet-A      5.3285 eV  232.68 nm  f=0.0058  <S**2>=0.000
      20 -> 22        -0.42509
      21 -> 23         0.56317
 This state for optimization and/or second-order correction.
 Total Energy, E(TD-HF/TD-DFT) =  -232.005218767
 Copying the excited state density for this state as the 1-particle RhoCI density.

 The electronic state is 1-A.
 Alpha  occ. eigenvalues --  -10.20384 -10.20132 -10.19712 -10.19523 -10.19275
 Alpha  occ. eigenvalues --  -10.18592  -0.85072  -0.75409  -0.72531  -0.60019
 Alpha  occ. eigenvalues --   -0.58438  -0.51052  -0.45440  -0.43694  -0.42388
 Alpha  occ. eigenvalues --   -0.39296  -0.35802  -0.33851  -0.32407  -0.25996
 Alpha  occ. eigenvalues --   -0.23690
 Alpha virt. eigenvalues --   -0.00869  -0.00212   0.06971   0.10837   0.14045
 Alpha virt. eigenvalues --    0.14843   0.16794   0.16888   0.18667   0.26987
 Alpha virt. eigenvalues --    0.28440   0.32157   0.32991   0.45993   0.48385

 Mulliken charges:
               1
     1  C   -0.103265
     2  C   -0.100505
     3  C   -0.078368
     4  C   -0.090908
     5  C   -0.047078
     6  C   -0.092285
     7  H    0.088587
     8  H    0.073073
     9  H    0.094054
    10  H    0.063127
    11  H    0.099127
    12  H    0.094441
 Sum of Mulliken charges =  -0.00000

 Dipole moment (field-independent basis, Debye):
    X=              0.1240    Y=             -0.2539    Z=              0.0017  Tot=              0.2826
 Quadrupole moment (field-independent basis, Debye-Ang):
   XX=            -30.9851   YY=            -32.9383   ZZ=            -38.7112
   XY=              0.2260   XZ=              0.6602   YZ=              0.5854

 Normal termination of Gaussian 16 at Fri Nov 10 16:34:42 2023.
