 Gaussian 16, Revision B.01,
 Gaussian 16:  EM64L-G16RevB.01 20-Dec-2017

 ---------------------------------
 # TD=(NStates=1) B3LYP/6-31G(d,p)
 ---------------------------------

 -------
 ABSSPCT
 -------
 Symbolic Z-matrix:
 Charge =  0 Multiplicity = 1

                         Standard orientation:
 ---------------------------------------------------------------------
 Center     Atomic      Atomic             Coordinates (Angstroms)
 Number     Number       Type             X           Y           Z
 ---------------------------------------------------------------------
      1          6           0       -0.702385   -1.262178   -0.060087
      2          6           0       -1.464344    0.064830    0.064726
      3          6           0       -0.704780    1.176488    0.000138
      4          6           0        0.744137    1.196029   -0.049593
      5          6           0        1.382063   -0.023397    0.034600
      6          6           0        0.712926   -1.192217   -0.027844
      7          1           0       -1.272001   -2.173372    0.158114
      8          1           0        1.257512   -2.016348   -0.091266
      9          1           0        2.437935   -0.073617    0.217649
     10          1           0        1.389065    2.133551    0.037951
     11          1           0       -1.147698    2.288431   -0.098459
     12          1           0       -2.470512    0.084016    0.004368
 ---------------------------------------------------------------------

 SCF Done:  E(RB3LYP) =  -232.208459000     A.U. after   14 cycles

 Excitation energies and oscillator strengths:

 Excited State   1:      Singlet-A      5.3287 eV  232.67 nm  f=0.0013  <S**2>=0.000
      20 -> 22         0.53051
      21 -> 23        -0.46434
 This state for optimization and/or second-order correction.
 Total Energy, E(TD-HF/TD-DFT) =  -232.012633553
 Copying the excited state density for this state as the 1-particle RhoCI density.

 The electronic state is 1-A.
 Alpha  occ. eigenvalues --  -10.20346 -10.20016 -10.19579 -10.19034 -10.18024
 Alpha  occ. eigenvalues --  -10.17728  -0.84348  -0.75151  -0.72720  -0.60733
 Alpha  occ. eigenvalues --   -0.58941  -0.51780  -0.46428  -0.44127  -0.41617
 Alpha  occ. eigenvalues --   -0.40644  -0.35963  -0.35301  -0.31643  -0.25579
 Alpha  occ. eigenvalues --   -0.23612
 Alpha virt. eigenvalues --   -0.01856   0.01029   0.08638   0.13263   0.14169
 Alpha virt. eigenvalues --    0.15746   0.16818   0.17845   0.20258   0.25611
 Alpha virt. eigenvalues --    0.30294   0.30814   0.33275   0.46657   0.49716

 Mulliken charges:
               1
     1  C   -0.122691
     2  C   -0.084411
     3  C   -0.079648
     4  C   -0.092716
     5  C   -0.068464
     6  C   -0.055373
     7  H    0.094620
     8  H    0.077152
     9  H    0.081976
    10  H    0.089762
    11  H    0.069861
    12  H    0.089932
 Sum of Mulliken charges =  -0.00000

 Dipole moment (field-independent basis, Debye):
    X=              0.1575    Y=             -0.1285    Z=              0.1545  Tot=              0.2553
 Quadrupole moment (field-independent basis, Debye-Ang):
   XX=            -31.1875   YY=            -31.9843   ZZ=            -38.5564
   XY=              0.3148   XZ=              0.2472   YZ=             -0.2569

 Normal termination of Gaussian 16 at Fri Nov 10 18:06:40 2023.
