 Gaussian 16, Revision B.01,
 Gaussian 16:  EM64L-G16RevB.01 20-Dec-2017

 ---------------------------------
 # TD=(NStates=1) B3LYP/6-31G(d,p)
 ---------------------------------

 -------
 ABSSPCT
 -------
 Symbolic Z-matrix:
 Charge =  0 Multiplicity = 1

                         Standard orientation:
 ---------------------------------------------------------------------
 Center     Atomic      Atomic             Coordinates (Angstroms)
 Number     Number       Type             X           Y           Z
 ---------------------------------------------------------------------
      1          6           0       -0.359272    1.342065   -0.014452
      2          6           0       -1.315410    0.372199    0.018936
      3          6           0       -1.008191   -0.948954   -0.039155
      4          6           0        0.337345   -1.306996   -0.016982
      5          6           0        1.367949   -0.418070   -0.021070
      6          6           0        0.998523    0.948446    0.038426
      7          1           0       -0.756070    2.321172    0.081648
      8          1           0        1.708918    1.839442   -0.157708
      9          1           0        2.447436   -0.573431    0.062723
     10          1           0        0.644193   -2.316661    0.182625
     11          1           0       -1.864934   -1.772319    0.006286
     12          1           0       -2.305199    0.569653    0.030216
 ---------------------------------------------------------------------

 SCF Done:  E(RB3LYP) =  -232.223764998     A.U. after   13 cycles

 Excitation energies and oscillator strengths:

 Excited State   1:      Singlet-A      5.5732 eV  222.47 nm  f=0.0002  <S**2>=0.000
      20 -> 22         0.50105
      21 -> 23         0.48836
 This state for optimization and/or second-order correction.
 Total Energy, E(TD-HF/TD-DFT) =  -232.018955498
 Copying the excited state density for this state as the 1-particle RhoCI density.

 The electronic state is 1-A.
 Alpha  occ. eigenvalues --  -10.19589 -10.19264 -10.19025 -10.18445 -10.18189
 Alpha  occ. eigenvalues --  -10.17115  -0.85528  -0.75335  -0.73517  -0.60266
 Alpha  occ. eigenvalues --   -0.59722  -0.51793  -0.46554  -0.43236  -0.42470
 Alpha  occ. eigenvalues --   -0.40375  -0.36771  -0.33849  -0.32811  -0.25422
 Alpha  occ. eigenvalues --   -0.24440
 Alpha virt. eigenvalues --   -0.00348   0.00730   0.08361   0.12867   0.14693
 Alpha virt. eigenvalues --    0.16236   0.17000   0.18006   0.20258   0.28896
 Alpha virt. eigenvalues --    0.31206   0.31950   0.33586   0.45096   0.51566

 Mulliken charges:
               1
     1  C   -0.071348
     2  C   -0.063147
     3  C   -0.079786
     4  C   -0.095359
     5  C   -0.075477
     6  C   -0.113352
     7  H    0.085450
     8  H    0.078577
     9  H    0.096750
    10  H    0.081836
    11  H    0.081519
    12  H    0.074336
 Sum of Mulliken charges =  -0.00000

 Dipole moment (field-independent basis, Debye):
    X=             -0.1234    Y=              0.0278    Z=              0.1320  Tot=              0.1828
 Quadrupole moment (field-independent basis, Debye-Ang):
   XX=            -31.3020   YY=            -32.2464   ZZ=            -38.3393
   XY=             -0.2288   XZ=             -0.1019   YZ=             -0.4476

 Normal termination of Gaussian 16 at Fri Nov 10 16:35:32 2023.
