 Gaussian 16, Revision B.01,
 Gaussian 16:  EM64L-G16RevB.01 20-Dec-2017

 ---------------------------------
 # TD=(NStates=1) B3LYP/6-31G(d,p)
 ---------------------------------

 -------
 ABSSPCT
 -------
 Symbolic Z-matrix:
 Charge =  0 Multiplicity = 1

                         Standard orientation:
 ---------------------------------------------------------------------
 Center     Atomic      Atomic             Coordinates (Angstroms)
 Number     Number       Type             X           Y           Z
 ---------------------------------------------------------------------
      1          6           0        0.440806    1.277761    0.030000
      2          6           0       -0.963919    0.983785   -0.051069
      3          6           0       -1.356284   -0.296695    0.036868
      4          6           0       -0.420510   -1.324138   -0.054143
      5          6           0        0.929729   -0.995674   -0.007805
      6          6           0        1.380927    0.292167   -0.006926
      7          1           0        0.540653    2.455867    0.092231
      8          1           0        2.427912    0.611818   -0.046479
      9          1           0        1.748296   -1.738456    0.105880
     10          1           0       -0.738745   -2.357621    0.113674
     11          1           0       -2.454453   -0.466907    0.073993
     12          1           0       -1.588153    1.872058   -0.020841
 ---------------------------------------------------------------------

 SCF Done:  E(RB3LYP) =  -232.231429588     A.U. after   12 cycles

 Excitation energies and oscillator strengths:

 Excited State   1:      Singlet-A      5.6164 eV  220.75 nm  f=0.0002  <S**2>=0.000
      20 -> 22        -0.49107
      21 -> 23         0.50075
 This state for optimization and/or second-order correction.
 Total Energy, E(TD-HF/TD-DFT) =  -232.025030745
 Copying the excited state density for this state as the 1-particle RhoCI density.

 The electronic state is 1-A.
 Alpha  occ. eigenvalues --  -10.19350 -10.18993 -10.18928 -10.18670 -10.18526
 Alpha  occ. eigenvalues --  -10.18196  -0.85643  -0.75246  -0.73531  -0.59886
 Alpha  occ. eigenvalues --   -0.59566  -0.51805  -0.45010  -0.44164  -0.42358
 Alpha  occ. eigenvalues --   -0.40655  -0.36650  -0.33937  -0.32593  -0.25626
 Alpha  occ. eigenvalues --   -0.24292
 Alpha virt. eigenvalues --   -0.00255   0.00929   0.07815   0.12967   0.13657
 Alpha virt. eigenvalues --    0.16197   0.17626   0.17873   0.19423   0.28765
 Alpha virt. eigenvalues --    0.30661   0.32152   0.34058   0.45967   0.52299

 Mulliken charges:
               1
     1  C   -0.088264
     2  C   -0.072508
     3  C   -0.083998
     4  C   -0.090732
     5  C   -0.095000
     6  C   -0.073046
     7  H    0.073815
     8  H    0.091388
     9  H    0.084145
    10  H    0.088758
    11  H    0.081933
    12  H    0.083508
 Sum of Mulliken charges =  -0.00000

 Dipole moment (field-independent basis, Debye):
    X=             -0.0132    Y=              0.0855    Z=              0.1896  Tot=              0.2084
 Quadrupole moment (field-independent basis, Debye-Ang):
   XX=            -31.7465   YY=            -31.9341   ZZ=            -38.4430
   XY=             -0.3117   XZ=             -0.1032   YZ=             -0.3002

 Normal termination of Gaussian 16 at Fri Nov 10 18:31:37 2023.
