 Gaussian 16, Revision B.01,
 Gaussian 16:  EM64L-G16RevB.01 20-Dec-2017

 ---------------------------------
 # TD=(NStates=1) B3LYP/6-31G(d,p)
 ---------------------------------

 -------
 ABSSPCT
 -------
 Symbolic Z-matrix:
 Charge =  0 Multiplicity = 1

                         Standard orientation:
 ---------------------------------------------------------------------
 Center     Atomic      Atomic             Coordinates (Angstroms)
 Number     Number       Type             X           Y           Z
 ---------------------------------------------------------------------
      1          6           0       -1.174948   -0.806615   -0.030830
      2          6           0       -1.306343    0.576770   -0.007943
      3          6           0       -0.073688    1.380035   -0.021536
      4          6           0        1.155108    0.813557   -0.028478
      5          6           0        1.279242   -0.590177   -0.004401
      6          6           0        0.136103   -1.309851   -0.011015
      7          1           0       -2.033557   -1.607094   -0.019326
      8          1           0        0.103133   -2.383197    0.158913
      9          1           0        2.357445   -1.312647    0.060359
     10          1           0        2.086170    1.385295    0.159962
     11          1           0       -0.395059    2.425382    0.003257
     12          1           0       -2.210969    1.109946    0.262049
 ---------------------------------------------------------------------

 SCF Done:  E(RB3LYP) =  -232.207628651     A.U. after   13 cycles

 Excitation energies and oscillator strengths:

 Excited State   1:      Singlet-A      5.4759 eV  226.42 nm  f=0.0023  <S**2>=0.000
      20 -> 22         0.40284
      20 -> 23        -0.25964
      21 -> 22         0.34300
      21 -> 23         0.38999
 This state for optimization and/or second-order correction.
 Total Energy, E(TD-HF/TD-DFT) =  -232.006393649
 Copying the excited state density for this state as the 1-particle RhoCI density.

 The electronic state is 1-A.
 Alpha  occ. eigenvalues --  -10.20610 -10.19802 -10.19559 -10.19462 -10.19369
 Alpha  occ. eigenvalues --  -10.18204  -0.85030  -0.74404  -0.73683  -0.59821
 Alpha  occ. eigenvalues --   -0.59155  -0.51115  -0.44534  -0.44263  -0.41824
 Alpha  occ. eigenvalues --   -0.39957  -0.36234  -0.33385  -0.32741  -0.25233
 Alpha  occ. eigenvalues --   -0.24462
 Alpha virt. eigenvalues --   -0.00549   0.00439   0.05808   0.11141   0.12725
 Alpha virt. eigenvalues --    0.15125   0.16435   0.18519   0.19080   0.27100
 Alpha virt. eigenvalues --    0.29935   0.32129   0.33540   0.46253   0.51189

 Mulliken charges:
               1
     1  C   -0.079699
     2  C   -0.108239
     3  C   -0.079795
     4  C   -0.102829
     5  C   -0.077210
     6  C   -0.066227
     7  H    0.086106
     8  H    0.078455
     9  H    0.076105
    10  H    0.091780
    11  H    0.089906
    12  H    0.091647
 Sum of Mulliken charges =  -0.00000

 Dipole moment (field-independent basis, Debye):
    X=             -0.1682    Y=             -0.0146    Z=              0.3673  Tot=              0.4042
 Quadrupole moment (field-independent basis, Debye-Ang):
   XX=            -32.0466   YY=            -31.7659   ZZ=            -38.6973
   XY=             -0.2700   XZ=             -0.0852   YZ=              0.1127

 Normal termination of Gaussian 16 at Fri Nov 10 18:48:58 2023.
