 Gaussian 16, Revision B.01,
 Gaussian 16:  EM64L-G16RevB.01 20-Dec-2017

 ---------------------------------
 # TD=(NStates=1) B3LYP/6-31G(d,p)
 ---------------------------------

 -------
 ABSSPCT
 -------
 Symbolic Z-matrix:
 Charge =  0 Multiplicity = 1

                         Standard orientation:
 ---------------------------------------------------------------------
 Center     Atomic      Atomic             Coordinates (Angstroms)
 Number     Number       Type             X           Y           Z
 ---------------------------------------------------------------------
      1          6           0       -1.315090    0.651997    0.091440
      2          6           0       -0.095538    1.371914   -0.040476
      3          6           0        1.174544    0.793073   -0.035019
      4          6           0        1.285443   -0.609991    0.064343
      5          6           0        0.109254   -1.402522   -0.060617
      6          6           0       -1.185196   -0.834340    0.002009
      7          1           0       -2.232428    1.204466    0.013372
      8          1           0       -2.147132   -1.357866   -0.016203
      9          1           0        0.103160   -2.486022   -0.208207
     10          1           0        2.316061   -0.922151    0.280655
     11          1           0        2.309416    1.163541   -0.067414
     12          1           0       -0.189577    2.577243   -0.132280
 ---------------------------------------------------------------------

 SCF Done:  E(RB3LYP) =  -232.210871247     A.U. after   13 cycles

 Excitation energies and oscillator strengths:

 Excited State   1:      Singlet-A      5.1753 eV  239.57 nm  f=0.0014  <S**2>=0.000
      20 -> 22         0.53267
      21 -> 23        -0.46440
 This state for optimization and/or second-order correction.
 Total Energy, E(TD-HF/TD-DFT) =  -232.020683029
 Copying the excited state density for this state as the 1-particle RhoCI density.

 The electronic state is 1-A.
 Alpha  occ. eigenvalues --  -10.20622 -10.20440 -10.20142 -10.20111 -10.19892
 Alpha  occ. eigenvalues --  -10.19654  -0.83565  -0.73468  -0.73209  -0.59717
 Alpha  occ. eigenvalues --   -0.58869  -0.50503  -0.45780  -0.44178  -0.40582
 Alpha  occ. eigenvalues --   -0.39765  -0.36181  -0.34757  -0.31401  -0.24657
 Alpha  occ. eigenvalues --   -0.24058
 Alpha virt. eigenvalues --   -0.01468   0.00022   0.06819   0.12221   0.12787
 Alpha virt. eigenvalues --    0.14301   0.16333   0.17104   0.17991   0.26930
 Alpha virt. eigenvalues --    0.28247   0.29550   0.32615   0.46264   0.48732

 Mulliken charges:
               1
     1  C   -0.087011
     2  C   -0.102204
     3  C   -0.068807
     4  C   -0.090048
     5  C   -0.085743
     6  C   -0.103441
     7  H    0.097787
     8  H    0.096602
     9  H    0.088513
    10  H    0.094137
    11  H    0.089938
    12  H    0.070274
 Sum of Mulliken charges =   0.00000

 Dipole moment (field-independent basis, Debye):
    X=             -0.0221    Y=             -0.1587    Z=             -0.0742  Tot=              0.1765
 Quadrupole moment (field-independent basis, Debye-Ang):
   XX=            -30.3717   YY=            -32.9685   ZZ=            -39.0461
   XY=             -0.1923   XZ=              0.4313   YZ=             -0.0485

 Normal termination of Gaussian 16 at Fri Nov 10 18:20:13 2023.
