 Gaussian 16, Revision B.01,
 Gaussian 16:  EM64L-G16RevB.01 20-Dec-2017

 ---------------------------------
 # TD=(NStates=1) B3LYP/6-31G(d,p)
 ---------------------------------

 -------
 ABSSPCT
 -------
 Symbolic Z-matrix:
 Charge =  0 Multiplicity = 1

                         Standard orientation:
 ---------------------------------------------------------------------
 Center     Atomic      Atomic             Coordinates (Angstroms)
 Number     Number       Type             X           Y           Z
 ---------------------------------------------------------------------
      1          6           0       -1.439479   -0.064407    0.030295
      2          6           0       -0.744064    1.190861   -0.004163
      3          6           0        0.675969    1.233978   -0.021661
      4          6           0        1.416723    0.022204    0.022654
      5          6           0        0.733123   -1.161223   -0.013776
      6          6           0       -0.650541   -1.232747   -0.054607
      7          1           0       -2.546538   -0.119174    0.061770
      8          1           0       -1.112661   -2.020956   -0.051118
      9          1           0        1.334187   -2.073515    0.215605
     10          1           0        2.363352    0.056770   -0.000331
     11          1           0        1.367221    2.082778   -0.062912
     12          1           0       -1.355950    2.142106    0.084541
 ---------------------------------------------------------------------

 SCF Done:  E(RB3LYP) =  -232.199029450     A.U. after   13 cycles

 Excitation energies and oscillator strengths:

 Excited State   1:      Singlet-A      5.3728 eV  230.76 nm  f=0.0004  <S**2>=0.000
      20 -> 22         0.33425
      20 -> 23        -0.35781
      21 -> 22         0.39265
      21 -> 23         0.32509
 This state for optimization and/or second-order correction.
 Total Energy, E(TD-HF/TD-DFT) =  -232.001581268
 Copying the excited state density for this state as the 1-particle RhoCI density.

 The electronic state is 1-A.
 Alpha  occ. eigenvalues --  -10.20037 -10.19655 -10.19314 -10.18456 -10.17141
 Alpha  occ. eigenvalues --  -10.17088  -0.84402  -0.74850  -0.73539  -0.60806
 Alpha  occ. eigenvalues --   -0.60072  -0.52360  -0.47061  -0.44368  -0.42027
 Alpha  occ. eigenvalues --   -0.40566  -0.35931  -0.35687  -0.32262  -0.24606
 Alpha  occ. eigenvalues --   -0.24386
 Alpha virt. eigenvalues --   -0.00335   0.00053   0.09692   0.13827   0.14921
 Alpha virt. eigenvalues --    0.15899   0.16364   0.19974   0.21242   0.28557
 Alpha virt. eigenvalues --    0.30155   0.30638   0.32833   0.46988   0.52167

 Mulliken charges:
               1
     1  C   -0.093602
     2  C   -0.105639
     3  C   -0.085252
     4  C   -0.049591
     5  C   -0.087592
     6  C   -0.036924
     7  H    0.091742
     8  H    0.053558
     9  H    0.077553
    10  H    0.066295
    11  H    0.086013
    12  H    0.083440
 Sum of Mulliken charges =  -0.00000

 Dipole moment (field-independent basis, Debye):
    X=              0.0410    Y=             -0.0870    Z=              0.1380  Tot=              0.1682
 Quadrupole moment (field-independent basis, Debye-Ang):
   XX=            -30.5521   YY=            -32.3127   ZZ=            -38.3607
   XY=              0.4862   XZ=             -0.0203   YZ=             -0.2198

 Normal termination of Gaussian 16 at Fri Nov 10 16:42:19 2023.
