 Gaussian 16, Revision B.01,
 Gaussian 16:  EM64L-G16RevB.01 20-Dec-2017

 ---------------------------------
 # TD=(NStates=1) B3LYP/6-31G(d,p)
 ---------------------------------

 -------
 ABSSPCT
 -------
 Symbolic Z-matrix:
 Charge =  0 Multiplicity = 1

                         Standard orientation:
 ---------------------------------------------------------------------
 Center     Atomic      Atomic             Coordinates (Angstroms)
 Number     Number       Type             X           Y           Z
 ---------------------------------------------------------------------
      1          6           0        1.019442    0.993214    0.011695
      2          6           0        1.361769   -0.345073   -0.010347
      3          6           0        0.357182   -1.338004   -0.039018
      4          6           0       -0.995432   -1.017171   -0.010016
      5          6           0       -1.395296    0.381780   -0.007933
      6          6           0       -0.378871    1.305999   -0.012088
      7          1           0        1.586504    1.978090   -0.032215
      8          1           0       -0.600129    2.417388    0.055942
      9          1           0       -2.441778    0.530462    0.151888
     10          1           0       -1.648426   -1.794171   -0.052840
     11          1           0        0.875409   -2.361988    0.242429
     12          1           0        2.415656   -0.654253    0.041041
 ---------------------------------------------------------------------

 SCF Done:  E(RB3LYP) =  -232.223255807     A.U. after   13 cycles

 Excitation energies and oscillator strengths:

 Excited State   1:      Singlet-A      5.3782 eV  230.53 nm  f=0.0012  <S**2>=0.000
      20 -> 22         0.41503
      20 -> 23        -0.27627
      21 -> 22        -0.33020
      21 -> 23        -0.37673
 This state for optimization and/or second-order correction.
 Total Energy, E(TD-HF/TD-DFT) =  -232.025609495
 Copying the excited state density for this state as the 1-particle RhoCI density.

 The electronic state is 1-A.
 Alpha  occ. eigenvalues --  -10.19660 -10.19643 -10.19395 -10.19320 -10.19235
 Alpha  occ. eigenvalues --  -10.18930  -0.84351  -0.74122  -0.73650  -0.60664
 Alpha  occ. eigenvalues --   -0.58748  -0.51419  -0.46550  -0.42924  -0.42048
 Alpha  occ. eigenvalues --   -0.40281  -0.36144  -0.33772  -0.32682  -0.24865
 Alpha  occ. eigenvalues --   -0.24536
 Alpha virt. eigenvalues --   -0.00742   0.00121   0.08017   0.11860   0.14099
 Alpha virt. eigenvalues --    0.15513   0.17700   0.17969   0.18512   0.27533
 Alpha virt. eigenvalues --    0.28951   0.31569   0.33045   0.45455   0.51167

 Mulliken charges:
               1
     1  C   -0.059957
     2  C   -0.106635
     3  C   -0.076407
     4  C   -0.101246
     5  C   -0.071054
     6  C   -0.104398
     7  H    0.092007
     8  H    0.076862
     9  H    0.093809
    10  H    0.088131
    11  H    0.081743
    12  H    0.087146
 Sum of Mulliken charges =  -0.00000

 Dipole moment (field-independent basis, Debye):
    X=             -0.0690    Y=              0.0457    Z=              0.2423  Tot=              0.2560
 Quadrupole moment (field-independent basis, Debye-Ang):
   XX=            -31.6222   YY=            -31.8580   ZZ=            -38.6788
   XY=              0.1824   XZ=             -0.0496   YZ=             -0.2901

 Normal termination of Gaussian 16 at Fri Nov 10 19:27:22 2023.
