 Gaussian 16, Revision B.01,
 Gaussian 16:  EM64L-G16RevB.01 20-Dec-2017

 ---------------------------------
 # TD=(NStates=1) B3LYP/6-31G(d,p)
 ---------------------------------

 -------
 ABSSPCT
 -------
 Symbolic Z-matrix:
 Charge =  0 Multiplicity = 1

                         Standard orientation:
 ---------------------------------------------------------------------
 Center     Atomic      Atomic             Coordinates (Angstroms)
 Number     Number       Type             X           Y           Z
 ---------------------------------------------------------------------
      1          6           0        1.094164    0.843939    0.062764
      2          6           0       -0.261767    1.382238    0.034326
      3          6           0       -1.289710    0.428003   -0.033296
      4          6           0       -1.072806   -0.921807   -0.087433
      5          6           0        0.233673   -1.327504    0.028671
      6          6           0        1.308819   -0.511185   -0.057101
      7          1           0        1.715051    1.673252   -0.058537
      8          1           0        2.289165   -0.784796   -0.096948
      9          1           0        0.469723   -2.341706    0.228752
     10          1           0       -2.009110   -1.424158    0.236363
     11          1           0       -2.271478    1.002739    0.039857
     12          1           0       -0.267593    2.512565   -0.037074
 ---------------------------------------------------------------------

 SCF Done:  E(RB3LYP) =  -232.205601029     A.U. after   13 cycles

 Excitation energies and oscillator strengths:

 Excited State   1:      Singlet-A      5.4017 eV  229.53 nm  f=0.0041  <S**2>=0.000
      20 -> 22         0.40023
      20 -> 23         0.23408
      21 -> 22        -0.35941
      21 -> 23         0.39358
 This state for optimization and/or second-order correction.
 Total Energy, E(TD-HF/TD-DFT) =  -232.007091325
 Copying the excited state density for this state as the 1-particle RhoCI density.

 The electronic state is 1-A.
 Alpha  occ. eigenvalues --  -10.19084 -10.19033 -10.18864 -10.18469 -10.18234
 Alpha  occ. eigenvalues --  -10.17829  -0.85491  -0.75037  -0.73932  -0.60270
 Alpha  occ. eigenvalues --   -0.60091  -0.52192  -0.45386  -0.45014  -0.42438
 Alpha  occ. eigenvalues --   -0.41049  -0.35922  -0.34277  -0.31640  -0.25265
 Alpha  occ. eigenvalues --   -0.24140
 Alpha virt. eigenvalues --   -0.00750   0.00513   0.08840   0.12949   0.14719
 Alpha virt. eigenvalues --    0.15064   0.17510   0.18697   0.20419   0.28196
 Alpha virt. eigenvalues --    0.30169   0.32305   0.33093   0.46144   0.50523

 Mulliken charges:
               1
     1  C   -0.082455
     2  C   -0.096472
     3  C   -0.092224
     4  C   -0.085065
     5  C   -0.097922
     6  C   -0.057749
     7  H    0.079239
     8  H    0.084241
     9  H    0.083622
    10  H    0.098187
    11  H    0.078163
    12  H    0.088434
 Sum of Mulliken charges =   0.00000

 Dipole moment (field-independent basis, Debye):
    X=              0.1864    Y=              0.1810    Z=              0.1936  Tot=              0.3240
 Quadrupole moment (field-independent basis, Debye-Ang):
   XX=            -32.1176   YY=            -31.6916   ZZ=            -38.2427
   XY=             -0.0075   XZ=             -0.6943   YZ=             -0.7990

 Normal termination of Gaussian 16 at Fri Nov 10 18:12:02 2023.
