 Gaussian 16, Revision B.01,
 Gaussian 16:  EM64L-G16RevB.01 20-Dec-2017

 ---------------------------------
 # TD=(NStates=1) B3LYP/6-31G(d,p)
 ---------------------------------

 -------
 ABSSPCT
 -------
 Symbolic Z-matrix:
 Charge =  0 Multiplicity = 1

                         Standard orientation:
 ---------------------------------------------------------------------
 Center     Atomic      Atomic             Coordinates (Angstroms)
 Number     Number       Type             X           Y           Z
 ---------------------------------------------------------------------
      1          6           0        1.362014   -0.414695   -0.015800
      2          6           0        0.272406   -1.354155    0.020383
      3          6           0       -1.021400   -0.933535   -0.023564
      4          6           0       -1.294364    0.436320   -0.048594
      5          6           0       -0.240469    1.316678    0.029736
      6          6           0        0.970225    0.919418    0.009268
      7          1           0        2.316299   -0.928775    0.015770
      8          1           0        1.760570    1.784687   -0.078232
      9          1           0       -0.453696    2.467239    0.157138
     10          1           0       -2.512163    0.769101   -0.138716
     11          1           0       -1.938518   -1.607311    0.294374
     12          1           0        0.537034   -2.305132   -0.078905
 ---------------------------------------------------------------------

 SCF Done:  E(RB3LYP) =  -232.187976936     A.U. after   13 cycles

 Excitation energies and oscillator strengths:

 Excited State   1:      Singlet-A      5.5773 eV  222.30 nm  f=0.0011  <S**2>=0.000
      20 -> 22         0.54333
      21 -> 23         0.45095
 This state for optimization and/or second-order correction.
 Total Energy, E(TD-HF/TD-DFT) =  -231.983014707
 Copying the excited state density for this state as the 1-particle RhoCI density.

 The electronic state is 1-A.
 Alpha  occ. eigenvalues --  -10.20286 -10.19336 -10.19312 -10.18780 -10.18498
 Alpha  occ. eigenvalues --  -10.17865  -0.86396  -0.75666  -0.73617  -0.60496
 Alpha  occ. eigenvalues --   -0.59077  -0.51479  -0.45118  -0.44468  -0.41230
 Alpha  occ. eigenvalues --   -0.40366  -0.36962  -0.34266  -0.32017  -0.25667
 Alpha  occ. eigenvalues --   -0.24358
 Alpha virt. eigenvalues --   -0.00861   0.01273   0.05623   0.11297   0.13227
 Alpha virt. eigenvalues --    0.15565   0.17272   0.17548   0.19883   0.28195
 Alpha virt. eigenvalues --    0.30667   0.32373   0.35123   0.45845   0.50631

 Mulliken charges:
               1
     1  C   -0.089332
     2  C   -0.084544
     3  C   -0.081802
     4  C   -0.096002
     5  C   -0.051073
     6  C   -0.080179
     7  H    0.094676
     8  H    0.072720
     9  H    0.080964
    10  H    0.072592
    11  H    0.083137
    12  H    0.078843
 Sum of Mulliken charges =  -0.00000

 Dipole moment (field-independent basis, Debye):
    X=              0.1133    Y=             -0.1258    Z=              0.1028  Tot=              0.1980
 Quadrupole moment (field-independent basis, Debye-Ang):
   XX=            -32.1647   YY=            -32.0272   ZZ=            -38.3944
   XY=             -0.5782   XZ=             -0.3831   YZ=             -0.1278

 Normal termination of Gaussian 16 at Fri Nov 10 17:31:37 2023.
