 Gaussian 16, Revision B.01,
 Gaussian 16:  EM64L-G16RevB.01 20-Dec-2017

 ---------------------------------
 # TD=(NStates=1) B3LYP/6-31G(d,p)
 ---------------------------------

 -------
 ABSSPCT
 -------
 Symbolic Z-matrix:
 Charge =  0 Multiplicity = 1

                         Standard orientation:
 ---------------------------------------------------------------------
 Center     Atomic      Atomic             Coordinates (Angstroms)
 Number     Number       Type             X           Y           Z
 ---------------------------------------------------------------------
      1          6           0        1.008716   -0.892310    0.021825
      2          6           0        1.380359    0.407439   -0.033076
      3          6           0        0.302765    1.309199   -0.011195
      4          6           0       -1.043228    0.930558    0.006410
      5          6           0       -1.345822   -0.436576    0.112499
      6          6           0       -0.328423   -1.291258   -0.075548
      7          1           0        1.870358   -1.711369    0.103610
      8          1           0       -0.490055   -2.401670   -0.083684
      9          1           0       -2.398071   -0.807787   -0.178759
     10          1           0       -1.737330    1.727664    0.009937
     11          1           0        0.438334    2.458822   -0.126874
     12          1           0        2.470564    0.572020    0.150276
 ---------------------------------------------------------------------

 SCF Done:  E(RB3LYP) =  -232.219947788     A.U. after   13 cycles

 Excitation energies and oscillator strengths:

 Excited State   1:      Singlet-A      5.4972 eV  225.54 nm  f=0.0076  <S**2>=0.000
      20 -> 23         0.41775
      21 -> 22         0.56894
 This state for optimization and/or second-order correction.
 Total Energy, E(TD-HF/TD-DFT) =  -232.017931026
 Copying the excited state density for this state as the 1-particle RhoCI density.

 The electronic state is 1-A.
 Alpha  occ. eigenvalues --  -10.19729 -10.19291 -10.19222 -10.19204 -10.18869
 Alpha  occ. eigenvalues --  -10.18631  -0.85776  -0.75113  -0.73683  -0.59778
 Alpha  occ. eigenvalues --   -0.59078  -0.51564  -0.44524  -0.43959  -0.42181
 Alpha  occ. eigenvalues --   -0.40086  -0.36791  -0.33813  -0.32582  -0.25784
 Alpha  occ. eigenvalues --   -0.24454
 Alpha virt. eigenvalues --   -0.00440   0.00163   0.07062   0.12545   0.13171
 Alpha virt. eigenvalues --    0.15117   0.17031   0.18177   0.18711   0.28850
 Alpha virt. eigenvalues --    0.29931   0.32445   0.33498   0.46075   0.47662

 Mulliken charges:
               1
     1  C   -0.083071
     2  C   -0.069350
     3  C   -0.100829
     4  C   -0.074059
     5  C   -0.096878
     6  C   -0.072642
     7  H    0.072392
     8  H    0.080965
     9  H    0.084705
    10  H    0.090172
    11  H    0.072639
    12  H    0.095958
 Sum of Mulliken charges =  -0.00000

 Dipole moment (field-independent basis, Debye):
    X=              0.0608    Y=              0.0051    Z=             -0.0666  Tot=              0.0903
 Quadrupole moment (field-independent basis, Debye-Ang):
   XX=            -31.7312   YY=            -32.3973   ZZ=            -38.5101
   XY=             -0.5203   XZ=              0.7959   YZ=             -0.0097

 Normal termination of Gaussian 16 at Fri Nov 10 17:04:16 2023.
