 Gaussian 16, Revision B.01,
 Gaussian 16:  EM64L-G16RevB.01 20-Dec-2017

 ---------------------------------
 # TD=(NStates=1) B3LYP/6-31G(d,p)
 ---------------------------------

 -------
 ABSSPCT
 -------
 Symbolic Z-matrix:
 Charge =  0 Multiplicity = 1

                         Standard orientation:
 ---------------------------------------------------------------------
 Center     Atomic      Atomic             Coordinates (Angstroms)
 Number     Number       Type             X           Y           Z
 ---------------------------------------------------------------------
      1          6           0        1.350977    0.381802    0.060929
      2          6           0        0.332176    1.389337   -0.013224
      3          6           0       -1.009062    0.944385   -0.089775
      4          6           0       -1.363642   -0.391214    0.087761
      5          6           0       -0.333894   -1.335373   -0.037671
      6          6           0        0.989189   -1.004973   -0.069053
      7          1           0        2.504381    0.581359    0.143360
      8          1           0        1.856647   -1.651907    0.099421
      9          1           0       -0.653746   -2.280139   -0.094975
     10          1           0       -2.353183   -0.608932    0.227961
     11          1           0       -1.821912    1.643570    0.008599
     12          1           0        0.673350    2.412265   -0.018174
 ---------------------------------------------------------------------

 SCF Done:  E(RB3LYP) =  -232.225171336     A.U. after   13 cycles

 Excitation energies and oscillator strengths:

 Excited State   1:      Singlet-A      5.3268 eV  232.76 nm  f=0.0002  <S**2>=0.000
      20 -> 22        -0.48773
      21 -> 23         0.49822
 This state for optimization and/or second-order correction.
 Total Energy, E(TD-HF/TD-DFT) =  -232.029416839
 Copying the excited state density for this state as the 1-particle RhoCI density.

 The electronic state is 1-A.
 Alpha  occ. eigenvalues --  -10.20039 -10.19500 -10.18857 -10.18843 -10.18215
 Alpha  occ. eigenvalues --  -10.17884  -0.84388  -0.74125  -0.73742  -0.60546
 Alpha  occ. eigenvalues --   -0.59184  -0.51958  -0.46477  -0.44197  -0.41835
 Alpha  occ. eigenvalues --   -0.40828  -0.35942  -0.34786  -0.32430  -0.24778
 Alpha  occ. eigenvalues --   -0.24135
 Alpha virt. eigenvalues --   -0.00523  -0.00026   0.08946   0.13947   0.14242
 Alpha virt. eigenvalues --    0.15749   0.17519   0.18554   0.20168   0.27801
 Alpha virt. eigenvalues --    0.29489   0.30834   0.33562   0.46478   0.50360

 Mulliken charges:
               1
     1  C   -0.104219
     2  C   -0.082098
     3  C   -0.098218
     4  C   -0.066294
     5  C   -0.077989
     6  C   -0.077144
     7  H    0.080945
     8  H    0.090300
     9  H    0.076402
    10  H    0.086022
    11  H    0.080363
    12  H    0.091930
 Sum of Mulliken charges =  -0.00000

 Dipole moment (field-independent basis, Debye):
    X=             -0.1044    Y=             -0.0535    Z=              0.2241  Tot=              0.2529
 Quadrupole moment (field-independent basis, Debye-Ang):
   XX=            -30.8680   YY=            -32.2071   ZZ=            -38.4914
   XY=              0.1779   XZ=             -0.0123   YZ=             -0.0466

 Normal termination of Gaussian 16 at Fri Nov 10 17:24:41 2023.
