 Gaussian 16, Revision B.01,
 Gaussian 16:  EM64L-G16RevB.01 20-Dec-2017

 ---------------------------------
 # TD=(NStates=1) B3LYP/6-31G(d,p)
 ---------------------------------

 -------
 ABSSPCT
 -------
 Symbolic Z-matrix:
 Charge =  0 Multiplicity = 1

                         Standard orientation:
 ---------------------------------------------------------------------
 Center     Atomic      Atomic             Coordinates (Angstroms)
 Number     Number       Type             X           Y           Z
 ---------------------------------------------------------------------
      1          6           0        0.989828    0.976988    0.075370
      2          6           0       -0.389217    1.353402    0.004857
      3          6           0       -1.373003    0.330308   -0.047049
      4          6           0       -0.943636   -0.964135    0.048571
      5          6           0        0.343828   -1.289425    0.004496
      6          6           0        1.384115   -0.359662   -0.052922
      7          1           0        1.794444    1.851561   -0.001498
      8          1           0        2.381752   -0.774820   -0.076898
      9          1           0        0.565173   -2.488388   -0.080357
     10          1           0       -1.735207   -1.733744    0.146993
     11          1           0       -2.415804    0.523578   -0.138625
     12          1           0       -0.661845    2.336954   -0.049547
 ---------------------------------------------------------------------

 SCF Done:  E(RB3LYP) =  -232.225603623     A.U. after   13 cycles

 Excitation energies and oscillator strengths:

 Excited State   1:      Singlet-A      5.5282 eV  224.28 nm  f=0.0013  <S**2>=0.000
      20 -> 22         0.40726
      20 -> 23         0.27001
      21 -> 22         0.32871
      21 -> 23        -0.39081
 This state for optimization and/or second-order correction.
 Total Energy, E(TD-HF/TD-DFT) =  -232.022446360
 Copying the excited state density for this state as the 1-particle RhoCI density.

 The electronic state is 1-A.
 Alpha  occ. eigenvalues --  -10.20401 -10.19249 -10.19183 -10.18899 -10.18617
 Alpha  occ. eigenvalues --  -10.17884  -0.85313  -0.74488  -0.73857  -0.60495
 Alpha  occ. eigenvalues --   -0.58932  -0.51777  -0.45387  -0.43970  -0.41930
 Alpha  occ. eigenvalues --   -0.40692  -0.36480  -0.34544  -0.32373  -0.25106
 Alpha  occ. eigenvalues --   -0.24612
 Alpha virt. eigenvalues --   -0.00287   0.00500   0.07311   0.12712   0.14106
 Alpha virt. eigenvalues --    0.16043   0.16922   0.18161   0.19363   0.28864
 Alpha virt. eigenvalues --    0.29853   0.31865   0.33486   0.46357   0.51862

 Mulliken charges:
               1
     1  C   -0.106315
     2  C   -0.082708
     3  C   -0.080313
     4  C   -0.062032
     5  C   -0.083439
     6  C   -0.076422
     7  H    0.077046
     8  H    0.095532
     9  H    0.066004
    10  H    0.080913
    11  H    0.086337
    12  H    0.085398
 Sum of Mulliken charges =  -0.00000

 Dipole moment (field-independent basis, Debye):
    X=             -0.1694    Y=              0.0357    Z=             -0.1314  Tot=              0.2173
 Quadrupole moment (field-independent basis, Debye-Ang):
   XX=            -31.4446   YY=            -32.0839   ZZ=            -38.5565
   XY=             -0.2356   XZ=             -0.0874   YZ=             -0.1753

 Normal termination of Gaussian 16 at Fri Nov 10 18:23:23 2023.
