 Gaussian 16, Revision B.01,
 Gaussian 16:  EM64L-G16RevB.01 20-Dec-2017

 ---------------------------------
 # TD=(NStates=1) B3LYP/6-31G(d,p)
 ---------------------------------

 -------
 ABSSPCT
 -------
 Symbolic Z-matrix:
 Charge =  0 Multiplicity = 1

                         Standard orientation:
 ---------------------------------------------------------------------
 Center     Atomic      Atomic             Coordinates (Angstroms)
 Number     Number       Type             X           Y           Z
 ---------------------------------------------------------------------
      1          6           0        0.852053    1.161157    0.089112
      2          6           0       -0.564835    1.233733   -0.063881
      3          6           0       -1.426296    0.088967   -0.074107
      4          6           0       -0.831682   -1.103188    0.143858
      5          6           0        0.546908   -1.277966   -0.038941
      6          6           0        1.390533   -0.136068   -0.036745
      7          1           0        1.552688    1.961378    0.312970
      8          1           0        2.532692   -0.280611   -0.123157
      9          1           0        1.061950   -2.244879   -0.359411
     10          1           0       -1.322597   -2.125731    0.288731
     11          1           0       -2.507746    0.506085   -0.124464
     12          1           0       -1.117062    2.383943   -0.110440
 ---------------------------------------------------------------------

 SCF Done:  E(RB3LYP) =  -232.200571132     A.U. after   13 cycles

 Excitation energies and oscillator strengths:

 Excited State   1:      Singlet-A      5.2353 eV  236.82 nm  f=0.0031  <S**2>=0.000
      20 -> 22        -0.40574
      20 -> 23         0.20196
      21 -> 22         0.32207
      21 -> 23         0.43628
 This state for optimization and/or second-order correction.
 Total Energy, E(TD-HF/TD-DFT) =  -232.008176662
 Copying the excited state density for this state as the 1-particle RhoCI density.

 The electronic state is 1-A.
 Alpha  occ. eigenvalues --  -10.21251 -10.20315 -10.19936 -10.19697 -10.19621
 Alpha  occ. eigenvalues --  -10.19570  -0.84697  -0.74408  -0.72836  -0.59594
 Alpha  occ. eigenvalues --   -0.58292  -0.50717  -0.44592  -0.44412  -0.41373
 Alpha  occ. eigenvalues --   -0.39771  -0.36325  -0.33213  -0.32163  -0.25219
 Alpha  occ. eigenvalues --   -0.23839
 Alpha virt. eigenvalues --   -0.01065  -0.00071   0.06247   0.11358   0.12120
 Alpha virt. eigenvalues --    0.14547   0.15299   0.16613   0.17860   0.26465
 Alpha virt. eigenvalues --    0.29727   0.31694   0.33206   0.45977   0.50291

 Mulliken charges:
               1
     1  C   -0.067940
     2  C   -0.109247
     3  C   -0.057454
     4  C   -0.105889
     5  C   -0.087186
     6  C   -0.096004
     7  H    0.095653
     8  H    0.081394
     9  H    0.096154
    10  H    0.085411
    11  H    0.101662
    12  H    0.063446
 Sum of Mulliken charges =  -0.00000

 Dipole moment (field-independent basis, Debye):
    X=              0.1343    Y=             -0.0341    Z=             -0.0316  Tot=              0.1421
 Quadrupole moment (field-independent basis, Debye-Ang):
   XX=            -31.8323   YY=            -32.2091   ZZ=            -38.8252
   XY=             -0.3848   XZ=             -0.0888   YZ=              0.5500

 Normal termination of Gaussian 16 at Fri Nov 10 18:05:51 2023.
