 Gaussian 16, Revision B.01,
 Gaussian 16:  EM64L-G16RevB.01 20-Dec-2017

 ---------------------------------
 # TD=(NStates=1) B3LYP/6-31G(d,p)
 ---------------------------------

 -------
 ABSSPCT
 -------
 Symbolic Z-matrix:
 Charge =  0 Multiplicity = 1

                         Standard orientation:
 ---------------------------------------------------------------------
 Center     Atomic      Atomic             Coordinates (Angstroms)
 Number     Number       Type             X           Y           Z
 ---------------------------------------------------------------------
      1          6           0       -1.475538    0.281346    0.031946
      2          6           0       -0.857873   -1.062378   -0.061550
      3          6           0        0.469550   -1.260403    0.037653
      4          6           0        1.461248   -0.285809   -0.033606
      5          6           0        0.923395    1.033982    0.021897
      6          6           0       -0.523687    1.255061    0.008314
      7          1           0       -2.452412    0.298608   -0.084648
      8          1           0       -0.564848    2.475694   -0.025582
      9          1           0        1.516120    1.921585    0.005145
     10          1           0        2.470515   -0.351278   -0.089475
     11          1           0        0.695377   -2.305052    0.138762
     12          1           0       -1.647326   -1.810354    0.027869
 ---------------------------------------------------------------------

 SCF Done:  E(RB3LYP) =  -232.197146257     A.U. after   13 cycles

 Excitation energies and oscillator strengths:

 Excited State   1:      Singlet-A      5.2957 eV  234.12 nm  f=0.0109  <S**2>=0.000
      20 -> 22         0.38237
      20 -> 23         0.24223
      21 -> 22         0.43346
      21 -> 23        -0.32559
 This state for optimization and/or second-order correction.
 Total Energy, E(TD-HF/TD-DFT) =  -232.002534395
 Copying the excited state density for this state as the 1-particle RhoCI density.

 The electronic state is 1-A.
 Alpha  occ. eigenvalues --  -10.20302 -10.19216 -10.18996 -10.18864 -10.18731
 Alpha  occ. eigenvalues --  -10.18433  -0.84422  -0.74864  -0.73344  -0.61635
 Alpha  occ. eigenvalues --   -0.58726  -0.51872  -0.48023  -0.44990  -0.40721
 Alpha  occ. eigenvalues --   -0.40049  -0.36321  -0.35545  -0.30565  -0.25254
 Alpha  occ. eigenvalues --   -0.23932
 Alpha virt. eigenvalues --   -0.01423   0.00854   0.08450   0.12712   0.14490
 Alpha virt. eigenvalues --    0.15749   0.17204   0.19433   0.19839   0.25841
 Alpha virt. eigenvalues --    0.29415   0.30448   0.34012   0.47081   0.50733

 Mulliken charges:
               1
     1  C   -0.077335
     2  C   -0.102663
     3  C   -0.080688
     4  C   -0.058157
     5  C   -0.104111
     6  C   -0.064147
     7  H    0.086635
     8  H    0.061512
     9  H    0.086004
    10  H    0.089302
    11  H    0.079223
    12  H    0.084424
 Sum of Mulliken charges =  -0.00000

 Dipole moment (field-independent basis, Debye):
    X=              0.1126    Y=             -0.0964    Z=             -0.0233  Tot=              0.1501
 Quadrupole moment (field-independent basis, Debye-Ang):
   XX=            -30.6912   YY=            -32.6283   ZZ=            -38.5450
   XY=              1.1146   XZ=              0.0100   YZ=             -0.3256

 Normal termination of Gaussian 16 at Fri Nov 10 16:50:44 2023.
