 Gaussian 16, Revision B.01,
 Gaussian 16:  EM64L-G16RevB.01 20-Dec-2017

 ---------------------------------
 # TD=(NStates=1) B3LYP/6-31G(d,p)
 ---------------------------------

 -------
 ABSSPCT
 -------
 Symbolic Z-matrix:
 Charge =  0 Multiplicity = 1

                         Standard orientation:
 ---------------------------------------------------------------------
 Center     Atomic      Atomic             Coordinates (Angstroms)
 Number     Number       Type             X           Y           Z
 ---------------------------------------------------------------------
      1          6           0       -1.432447    0.233612   -0.000429
      2          6           0       -0.937667   -1.015426   -0.015828
      3          6           0        0.409910   -1.358411   -0.014829
      4          6           0        1.376541   -0.283262    0.011107
      5          6           0        1.020433    1.083593    0.055471
      6          6           0       -0.476492    1.309091    0.000499
      7          1           0       -2.525492    0.641483   -0.055507
      8          1           0       -0.707170    2.361688   -0.068676
      9          1           0        1.580933    1.930305   -0.106626
     10          1           0        2.527115   -0.536309   -0.106251
     11          1           0        0.978603   -2.362200   -0.016265
     12          1           0       -1.615662   -1.850148    0.137378
 ---------------------------------------------------------------------

 SCF Done:  E(RB3LYP) =  -232.208619567     A.U. after   13 cycles

 Excitation energies and oscillator strengths:

 Excited State   1:      Singlet-A      5.2342 eV  236.87 nm  f=0.0008  <S**2>=0.000
      20 -> 22        -0.47959
      21 -> 22         0.11143
      21 -> 23         0.50228
 This state for optimization and/or second-order correction.
 Total Energy, E(TD-HF/TD-DFT) =  -232.016265796
 Copying the excited state density for this state as the 1-particle RhoCI density.

 The electronic state is 1-A.
 Alpha  occ. eigenvalues --  -10.20433 -10.20184 -10.20101 -10.19960 -10.19505
 Alpha  occ. eigenvalues --  -10.19183  -0.83837  -0.74174  -0.72629  -0.60009
 Alpha  occ. eigenvalues --   -0.58845  -0.50729  -0.46257  -0.44337  -0.41325
 Alpha  occ. eigenvalues --   -0.40045  -0.35502  -0.34037  -0.31819  -0.25260
 Alpha  occ. eigenvalues --   -0.23624
 Alpha virt. eigenvalues --   -0.01328   0.00087   0.07585   0.12039   0.14068
 Alpha virt. eigenvalues --    0.14581   0.16308   0.16655   0.19096   0.25070
 Alpha virt. eigenvalues --    0.28856   0.30480   0.32673   0.45920   0.48536

 Mulliken charges:
               1
     1  C   -0.063682
     2  C   -0.105561
     3  C   -0.073383
     4  C   -0.101457
     5  C   -0.071842
     6  C   -0.116758
     7  H    0.096712
     8  H    0.084046
     9  H    0.093605
    10  H    0.072605
    11  H    0.098954
    12  H    0.086760
 Sum of Mulliken charges =  -0.00000

 Dipole moment (field-independent basis, Debye):
    X=              0.0053    Y=              0.1794    Z=             -0.1388  Tot=              0.2269
 Quadrupole moment (field-independent basis, Debye-Ang):
   XX=            -31.8964   YY=            -31.2877   ZZ=            -38.9816
   XY=             -0.3394   XZ=             -0.3788   YZ=             -0.5144

 Normal termination of Gaussian 16 at Fri Nov 10 16:13:01 2023.
