 Gaussian 16, Revision B.01,
 Gaussian 16:  EM64L-G16RevB.01 20-Dec-2017

 ---------------------------------
 # TD=(NStates=1) B3LYP/6-31G(d,p)
 ---------------------------------

 -------
 ABSSPCT
 -------
 Symbolic Z-matrix:
 Charge =  0 Multiplicity = 1

                         Standard orientation:
 ---------------------------------------------------------------------
 Center     Atomic      Atomic             Coordinates (Angstroms)
 Number     Number       Type             X           Y           Z
 ---------------------------------------------------------------------
      1          6           0        1.085456   -0.843938   -0.019099
      2          6           0       -0.213871   -1.391346   -0.029784
      3          6           0       -1.283867   -0.492410   -0.041472
      4          6           0       -1.159968    0.881219    0.027039
      5          6           0        0.218514    1.382372    0.041755
      6          6           0        1.346261    0.504299   -0.043971
      7          1           0        1.938893   -1.589145    0.281084
      8          1           0        2.506976    0.794105    0.024398
      9          1           0        0.278209    2.393694   -0.118161
     10          1           0       -1.878231    1.646263    0.073337
     11          1           0       -2.336847   -1.101851    0.063389
     12          1           0       -0.464149   -2.384239    0.069144
 ---------------------------------------------------------------------

 SCF Done:  E(RB3LYP) =  -232.209863396     A.U. after   13 cycles

 Excitation energies and oscillator strengths:

 Excited State   1:      Singlet-A      5.3249 eV  232.84 nm  f=0.0003  <S**2>=0.000
      20 -> 22         0.51791
      21 -> 23         0.48074
 This state for optimization and/or second-order correction.
 Total Energy, E(TD-HF/TD-DFT) =  -232.014177210
 Copying the excited state density for this state as the 1-particle RhoCI density.

 The electronic state is 1-A.
 Alpha  occ. eigenvalues --  -10.20368 -10.20147 -10.19642 -10.19531 -10.19471
 Alpha  occ. eigenvalues --  -10.18592  -0.84393  -0.74066  -0.73779  -0.60597
 Alpha  occ. eigenvalues --   -0.58740  -0.51335  -0.45789  -0.43954  -0.41515
 Alpha  occ. eigenvalues --   -0.40458  -0.36495  -0.34182  -0.31862  -0.25214
 Alpha  occ. eigenvalues --   -0.24187
 Alpha virt. eigenvalues --   -0.01284   0.00248   0.07526   0.10958   0.13719
 Alpha virt. eigenvalues --    0.15153   0.16221   0.18958   0.19308   0.27067
 Alpha virt. eigenvalues --    0.29000   0.31158   0.33417   0.45513   0.49267

 Mulliken charges:
               1
     1  C   -0.089317
     2  C   -0.057106
     3  C   -0.086223
     4  C   -0.077737
     5  C   -0.111011
     6  C   -0.078733
     7  H    0.076555
     8  H    0.088782
     9  H    0.087138
    10  H    0.095923
    11  H    0.062074
    12  H    0.089655
 Sum of Mulliken charges =  -0.00000

 Dipole moment (field-independent basis, Debye):
    X=             -0.0310    Y=              0.0475    Z=              0.2105  Tot=              0.2180
 Quadrupole moment (field-independent basis, Debye-Ang):
   XX=            -32.4022   YY=            -31.2794   ZZ=            -38.7368
   XY=             -0.2352   XZ=              0.1783   YZ=             -0.6709

 Normal termination of Gaussian 16 at Fri Nov 10 16:19:28 2023.
