 Gaussian 16, Revision B.01,
 Gaussian 16:  EM64L-G16RevB.01 20-Dec-2017

 ---------------------------------
 # TD=(NStates=1) B3LYP/6-31G(d,p)
 ---------------------------------

 -------
 ABSSPCT
 -------
 Symbolic Z-matrix:
 Charge =  0 Multiplicity = 1

                         Standard orientation:
 ---------------------------------------------------------------------
 Center     Atomic      Atomic             Coordinates (Angstroms)
 Number     Number       Type             X           Y           Z
 ---------------------------------------------------------------------
      1          6           0        1.068776    0.862413    0.088696
      2          6           0       -0.248268    1.420687   -0.014706
      3          6           0       -1.339201    0.432078   -0.024367
      4          6           0       -1.090682   -0.892499    0.042255
      5          6           0        0.269487   -1.371695   -0.068084
      6          6           0        1.328898   -0.469129   -0.045982
      7          1           0        1.867215    1.526134    0.054912
      8          1           0        2.414566   -0.806242    0.081971
      9          1           0        0.444514   -2.344003   -0.010499
     10          1           0       -1.908783   -1.616644    0.190435
     11          1           0       -2.492528    0.852242    0.005866
     12          1           0       -0.259040    2.497385   -0.189553
 ---------------------------------------------------------------------

 SCF Done:  E(RB3LYP) =  -232.217605162     A.U. after   13 cycles

 Excitation energies and oscillator strengths:

 Excited State   1:      Singlet-A      5.3533 eV  231.60 nm  f=0.0007  <S**2>=0.000
      20 -> 22         0.52565
      21 -> 23         0.47178
 This state for optimization and/or second-order correction.
 Total Energy, E(TD-HF/TD-DFT) =  -232.020873443
 Copying the excited state density for this state as the 1-particle RhoCI density.

 The electronic state is 1-A.
 Alpha  occ. eigenvalues --  -10.20644 -10.20040 -10.19263 -10.19021 -10.18455
 Alpha  occ. eigenvalues --  -10.18122  -0.84351  -0.74596  -0.73202  -0.60988
 Alpha  occ. eigenvalues --   -0.58331  -0.51254  -0.46314  -0.43766  -0.41505
 Alpha  occ. eigenvalues --   -0.40636  -0.35992  -0.35043  -0.32228  -0.25428
 Alpha  occ. eigenvalues --   -0.23737
 Alpha virt. eigenvalues --   -0.01500   0.00917   0.08282   0.12176   0.14259
 Alpha virt. eigenvalues --    0.15455   0.15916   0.18744   0.20034   0.28069
 Alpha virt. eigenvalues --    0.28899   0.30986   0.32931   0.46689   0.50286

 Mulliken charges:
               1
     1  C   -0.082693
     2  C   -0.094250
     3  C   -0.095798
     4  C   -0.072542
     5  C   -0.082685
     6  C   -0.075652
     7  H    0.079036
     8  H    0.084426
     9  H    0.079002
    10  H    0.091279
    11  H    0.072059
    12  H    0.097817
 Sum of Mulliken charges =  -0.00000

 Dipole moment (field-independent basis, Debye):
    X=              0.1609    Y=             -0.0617    Z=              0.0679  Tot=              0.1852
 Quadrupole moment (field-independent basis, Debye-Ang):
   XX=            -31.9091   YY=            -31.3100   ZZ=            -38.6460
   XY=              0.4400   XZ=             -0.0395   YZ=             -0.6754

 Normal termination of Gaussian 16 at Fri Nov 10 16:03:28 2023.
