 Gaussian 16, Revision B.01,
 Gaussian 16:  EM64L-G16RevB.01 20-Dec-2017

 ---------------------------------
 # TD=(NStates=1) B3LYP/6-31G(d,p)
 ---------------------------------

 -------
 ABSSPCT
 -------
 Symbolic Z-matrix:
 Charge =  0 Multiplicity = 1

                         Standard orientation:
 ---------------------------------------------------------------------
 Center     Atomic      Atomic             Coordinates (Angstroms)
 Number     Number       Type             X           Y           Z
 ---------------------------------------------------------------------
      1          6           0        1.233467    0.700829   -0.051540
      2          6           0       -0.015438    1.372092   -0.004987
      3          6           0       -1.244431    0.693490    0.044887
      4          6           0       -1.234033   -0.671012   -0.059723
      5          6           0        0.033412   -1.393965   -0.010992
      6          6           0        1.213727   -0.719432   -0.013401
      7          1           0        2.163532    1.231034    0.265106
      8          1           0        2.053020   -1.291351    0.137240
      9          1           0       -0.072919   -2.393653    0.003205
     10          1           0       -2.205420   -1.111008    0.264771
     11          1           0       -1.950948    1.129491   -0.054531
     12          1           0        0.092512    2.543476   -0.041252
 ---------------------------------------------------------------------

 SCF Done:  E(RB3LYP) =  -232.153302845     A.U. after   13 cycles

 Excitation energies and oscillator strengths:

 Excited State   1:      Singlet-A      5.3101 eV  233.49 nm  f=0.0023  <S**2>=0.000
      20 -> 22         0.48386
      20 -> 23         0.13097
      21 -> 22         0.20514
      21 -> 23        -0.45418
 This state for optimization and/or second-order correction.
 Total Energy, E(TD-HF/TD-DFT) =  -231.958160092
 Copying the excited state density for this state as the 1-particle RhoCI density.

 The electronic state is 1-A.
 Alpha  occ. eigenvalues --  -10.19814 -10.19424 -10.19066 -10.18390 -10.18245
 Alpha  occ. eigenvalues --  -10.16347  -0.84679  -0.75990  -0.73117  -0.61533
 Alpha  occ. eigenvalues --   -0.59784  -0.52759  -0.47619  -0.44107  -0.42228
 Alpha  occ. eigenvalues --   -0.40437  -0.36661  -0.33910  -0.32927  -0.25373
 Alpha  occ. eigenvalues --   -0.24006
 Alpha virt. eigenvalues --   -0.01400   0.00305   0.09781   0.12918   0.14867
 Alpha virt. eigenvalues --    0.16036   0.17596   0.19255   0.21433   0.27841
 Alpha virt. eigenvalues --    0.29577   0.31797   0.32634   0.46054   0.50690

 Mulliken charges:
               1
     1  C   -0.098216
     2  C   -0.106149
     3  C    0.028307
     4  C   -0.123562
     5  C   -0.072979
     6  C   -0.070558
     7  H    0.092101
     8  H    0.083750
     9  H    0.081213
    10  H    0.084833
    11  H    0.026594
    12  H    0.074665
 Sum of Mulliken charges =  -0.00000

 Dipole moment (field-independent basis, Debye):
    X=             -0.0059    Y=             -0.0989    Z=              0.3675  Tot=              0.3806
 Quadrupole moment (field-independent basis, Debye-Ang):
   XX=            -31.5288   YY=            -31.8919   ZZ=            -38.1153
   XY=             -0.2176   XZ=              0.3127   YZ=             -0.2466

 Normal termination of Gaussian 16 at Fri Nov 10 19:26:27 2023.
