 Gaussian 16, Revision B.01,
 Gaussian 16:  EM64L-G16RevB.01 20-Dec-2017

 ---------------------------------
 # TD=(NStates=1) B3LYP/6-31G(d,p)
 ---------------------------------

 -------
 ABSSPCT
 -------
 Symbolic Z-matrix:
 Charge =  0 Multiplicity = 1

                         Standard orientation:
 ---------------------------------------------------------------------
 Center     Atomic      Atomic             Coordinates (Angstroms)
 Number     Number       Type             X           Y           Z
 ---------------------------------------------------------------------
      1          6           0        1.426011   -0.032549   -0.049672
      2          6           0        0.669036   -1.191284    0.025105
      3          6           0       -0.759167   -1.218278    0.032633
      4          6           0       -1.359606    0.002055   -0.037502
      5          6           0       -0.692044    1.193537    0.004743
      6          6           0        0.665815    1.238126   -0.029792
      7          1           0        2.586882   -0.140422   -0.001471
      8          1           0        1.282157    2.077638    0.368588
      9          1           0       -1.161437    2.068514   -0.040093
     10          1           0       -2.454703    0.099141   -0.041936
     11          1           0       -1.297140   -2.018896    0.139659
     12          1           0        1.343972   -2.035618   -0.097832
 ---------------------------------------------------------------------

 SCF Done:  E(RB3LYP) =  -232.208546261     A.U. after   14 cycles

 Excitation energies and oscillator strengths:

 Excited State   1:      Singlet-A      5.4017 eV  229.53 nm  f=0.0026  <S**2>=0.000
      20 -> 22         0.51385
      20 -> 23         0.11248
      21 -> 22        -0.16934
      21 -> 23         0.44066
 This state for optimization and/or second-order correction.
 Total Energy, E(TD-HF/TD-DFT) =  -232.010036080
 Copying the excited state density for this state as the 1-particle RhoCI density.

 The electronic state is 1-A.
 Alpha  occ. eigenvalues --  -10.19762 -10.19176 -10.18831 -10.18354 -10.18128
 Alpha  occ. eigenvalues --  -10.17298  -0.85029  -0.74796  -0.73988  -0.61113
 Alpha  occ. eigenvalues --   -0.58877  -0.52627  -0.45902  -0.44091  -0.42643
 Alpha  occ. eigenvalues --   -0.41021  -0.36846  -0.34066  -0.32099  -0.25049
 Alpha  occ. eigenvalues --   -0.24334
 Alpha virt. eigenvalues --   -0.01061   0.00703   0.09205   0.13474   0.14038
 Alpha virt. eigenvalues --    0.16554   0.18243   0.18583   0.19953   0.27946
 Alpha virt. eigenvalues --    0.29331   0.32634   0.32884   0.46277   0.50241

 Mulliken charges:
               1
     1  C   -0.103325
     2  C   -0.087472
     3  C   -0.049529
     4  C   -0.088130
     5  C   -0.051697
     6  C   -0.111154
     7  H    0.088764
     8  H    0.088699
     9  H    0.080552
    10  H    0.077023
    11  H    0.077047
    12  H    0.079222
 Sum of Mulliken charges =  -0.00000

 Dipole moment (field-independent basis, Debye):
    X=             -0.1033    Y=             -0.0565    Z=              0.2100  Tot=              0.2408
 Quadrupole moment (field-independent basis, Debye-Ang):
   XX=            -31.1909   YY=            -32.2618   ZZ=            -38.2273
   XY=             -0.1773   XZ=              0.2451   YZ=              0.4324

 Normal termination of Gaussian 16 at Fri Nov 10 19:34:02 2023.
