 Gaussian 16, Revision B.01,
 Gaussian 16:  EM64L-G16RevB.01 20-Dec-2017

 ---------------------------------
 # TD=(NStates=1) B3LYP/6-31G(d,p)
 ---------------------------------

 -------
 ABSSPCT
 -------
 Symbolic Z-matrix:
 Charge =  0 Multiplicity = 1

                         Standard orientation:
 ---------------------------------------------------------------------
 Center     Atomic      Atomic             Coordinates (Angstroms)
 Number     Number       Type             X           Y           Z
 ---------------------------------------------------------------------
      1          6           0       -0.061014   -1.394249   -0.072907
      2          6           0       -1.281254   -0.665704   -0.038033
      3          6           0       -1.202525    0.735626    0.106587
      4          6           0        0.049425    1.432529   -0.061900
      5          6           0        1.227014    0.659127    0.026012
      6          6           0        1.191739   -0.778339    0.043954
      7          1           0        0.083097   -2.521663    0.035185
      8          1           0        2.242419   -1.256504    0.114293
      9          1           0        2.313540    1.173652   -0.081260
     10          1           0        0.209864    2.469406   -0.129252
     11          1           0       -2.106022    1.245353    0.039100
     12          1           0       -2.283212   -1.044182   -0.000346
 ---------------------------------------------------------------------

 SCF Done:  E(RB3LYP) =  -232.221490349     A.U. after   13 cycles

 Excitation energies and oscillator strengths:

 Excited State   1:      Singlet-A      5.2556 eV  235.91 nm  f=0.0002  <S**2>=0.000
      20 -> 22         0.30975
      20 -> 23        -0.38869
      21 -> 22         0.40797
      21 -> 23         0.29346
 This state for optimization and/or second-order correction.
 Total Energy, E(TD-HF/TD-DFT) =  -232.028349215
 Copying the excited state density for this state as the 1-particle RhoCI density.

 The electronic state is 1-A.
 Alpha  occ. eigenvalues --  -10.20169 -10.20141 -10.19996 -10.19728 -10.19360
 Alpha  occ. eigenvalues --  -10.19203  -0.83802  -0.73688  -0.73453  -0.59884
 Alpha  occ. eigenvalues --   -0.58914  -0.51199  -0.45377  -0.43726  -0.41541
 Alpha  occ. eigenvalues --   -0.40736  -0.35430  -0.34195  -0.32582  -0.24543
 Alpha  occ. eigenvalues --   -0.24493
 Alpha virt. eigenvalues --   -0.00779  -0.00465   0.07687   0.12829   0.13920
 Alpha virt. eigenvalues --    0.14261   0.16030   0.17893   0.18851   0.27785
 Alpha virt. eigenvalues --    0.28643   0.30604   0.31438   0.46150   0.49071

 Mulliken charges:
               1
     1  C   -0.096248
     2  C   -0.085564
     3  C   -0.095168
     4  C   -0.076219
     5  C   -0.091128
     6  C   -0.079923
     7  H    0.084848
     8  H    0.094172
     9  H    0.071487
    10  H    0.091285
    11  H    0.085647
    12  H    0.096813
 Sum of Mulliken charges =  -0.00000

 Dipole moment (field-independent basis, Debye):
    X=             -0.0333    Y=              0.0898    Z=             -0.0189  Tot=              0.0976
 Quadrupole moment (field-independent basis, Debye-Ang):
   XX=            -30.9416   YY=            -32.3022   ZZ=            -38.9305
   XY=             -0.2388   XZ=             -0.0008   YZ=             -0.5067

 Normal termination of Gaussian 16 at Fri Nov 10 16:47:06 2023.
