 Gaussian 16, Revision B.01,
 Gaussian 16:  EM64L-G16RevB.01 20-Dec-2017

 ---------------------------------
 # TD=(NStates=1) B3LYP/6-31G(d,p)
 ---------------------------------

 -------
 ABSSPCT
 -------
 Symbolic Z-matrix:
 Charge =  0 Multiplicity = 1

                         Standard orientation:
 ---------------------------------------------------------------------
 Center     Atomic      Atomic             Coordinates (Angstroms)
 Number     Number       Type             X           Y           Z
 ---------------------------------------------------------------------
      1          6           0        1.128301    0.748435   -0.012954
      2          6           0       -0.064008    1.422454    0.030704
      3          6           0       -1.243849    0.649280   -0.037802
      4          6           0       -1.176658   -0.743169   -0.033965
      5          6           0        0.053221   -1.444696    0.051369
      6          6           0        1.292951   -0.657043   -0.024593
      7          1           0        2.097650    1.107068   -0.021463
      8          1           0        2.247512   -0.936599   -0.006215
      9          1           0        0.039643   -2.413464    0.090030
     10          1           0       -2.212369   -1.131572   -0.129677
     11          1           0       -2.128103    0.953432    0.225367
     12          1           0        0.015921    2.569570    0.005399
 ---------------------------------------------------------------------

 SCF Done:  E(RB3LYP) =  -232.192687453     A.U. after   13 cycles

 Excitation energies and oscillator strengths:

 Excited State   1:      Singlet-A      5.2714 eV  235.20 nm  f=0.0027  <S**2>=0.000
      20 -> 22         0.53268
      21 -> 23        -0.44931
 This state for optimization and/or second-order correction.
 Total Energy, E(TD-HF/TD-DFT) =  -231.998965353
 Copying the excited state density for this state as the 1-particle RhoCI density.

 The electronic state is 1-A.
 Alpha  occ. eigenvalues --  -10.19532 -10.19063 -10.18965 -10.18747 -10.17736
 Alpha  occ. eigenvalues --  -10.17637  -0.84220  -0.74974  -0.73671  -0.62565
 Alpha  occ. eigenvalues --   -0.58661  -0.52409  -0.47517  -0.44564  -0.42398
 Alpha  occ. eigenvalues --   -0.39910  -0.36595  -0.34422  -0.32514  -0.24704
 Alpha  occ. eigenvalues --   -0.24097
 Alpha virt. eigenvalues --   -0.01321   0.00556   0.09745   0.14034   0.14707
 Alpha virt. eigenvalues --    0.15399   0.17903   0.20317   0.21185   0.28558
 Alpha virt. eigenvalues --    0.28943   0.30755   0.31802   0.46610   0.50535

 Mulliken charges:
               1
     1  C   -0.067834
     2  C   -0.089163
     3  C   -0.077175
     4  C   -0.094695
     5  C   -0.076498
     6  C   -0.077835
     7  H    0.074064
     8  H    0.080601
     9  H    0.074096
    10  H    0.086077
    11  H    0.082911
    12  H    0.085451
 Sum of Mulliken charges =  -0.00000

 Dipole moment (field-independent basis, Debye):
    X=              0.1105    Y=             -0.0849    Z=              0.1226  Tot=              0.1856
 Quadrupole moment (field-independent basis, Debye-Ang):
   XX=            -30.5544   YY=            -32.3947   ZZ=            -38.3195
   XY=              0.0524   XZ=             -0.2429   YZ=              0.0831

 Normal termination of Gaussian 16 at Fri Nov 10 17:24:21 2023.
