 Gaussian 16, Revision B.01,
 Gaussian 16:  EM64L-G16RevB.01 20-Dec-2017

 ---------------------------------
 # TD=(NStates=1) B3LYP/6-31G(d,p)
 ---------------------------------

 -------
 ABSSPCT
 -------
 Symbolic Z-matrix:
 Charge =  0 Multiplicity = 1

                         Standard orientation:
 ---------------------------------------------------------------------
 Center     Atomic      Atomic             Coordinates (Angstroms)
 Number     Number       Type             X           Y           Z
 ---------------------------------------------------------------------
      1          6           0       -0.832455   -1.115285   -0.046290
      2          6           0        0.592827   -1.228081    0.019883
      3          6           0        1.436200   -0.135488   -0.047955
      4          6           0        0.799633    1.072806   -0.017522
      5          6           0       -0.560665    1.218357    0.048298
      6          6           0       -1.437332    0.125488   -0.085046
      7          1           0       -1.297138   -2.020560    0.130862
      8          1           0       -2.372970    0.274976    0.073261
      9          1           0       -0.950960    2.252630    0.275948
     10          1           0        1.184024    2.164499   -0.022422
     11          1           0        2.527526   -0.171188   -0.019981
     12          1           0        0.920275   -2.127134    0.334117
 ---------------------------------------------------------------------

 SCF Done:  E(RB3LYP) =  -232.207716908     A.U. after   13 cycles

 Excitation energies and oscillator strengths:

 Excited State   1:      Singlet-A      5.4124 eV  229.07 nm  f=0.0073  <S**2>=0.000
      20 -> 22         0.23422
      20 -> 23         0.35086
      21 -> 22         0.50162
      21 -> 23        -0.26458
 This state for optimization and/or second-order correction.
 Total Energy, E(TD-HF/TD-DFT) =  -232.008813783
 Copying the excited state density for this state as the 1-particle RhoCI density.

 The electronic state is 1-A.
 Alpha  occ. eigenvalues --  -10.18948 -10.18553 -10.18453 -10.18380 -10.17906
 Alpha  occ. eigenvalues --  -10.17648  -0.85283  -0.75167  -0.73984  -0.61577
 Alpha  occ. eigenvalues --   -0.59188  -0.52595  -0.46537  -0.44524  -0.42780
 Alpha  occ. eigenvalues --   -0.40203  -0.36672  -0.34245  -0.32719  -0.25347
 Alpha  occ. eigenvalues --   -0.23924
 Alpha virt. eigenvalues --   -0.00362   0.00457   0.08830   0.14400   0.15066
 Alpha virt. eigenvalues --    0.15448   0.17578   0.19884   0.20995   0.28761
 Alpha virt. eigenvalues --    0.31408   0.31894   0.33024   0.46619   0.52445

 Mulliken charges:
               1
     1  C   -0.087774
     2  C   -0.092476
     3  C   -0.086129
     4  C   -0.064914
     5  C   -0.099147
     6  C   -0.054498
     7  H    0.082519
     8  H    0.073649
     9  H    0.079884
    10  H    0.075905
    11  H    0.092461
    12  H    0.080520
 Sum of Mulliken charges =  -0.00000

 Dipole moment (field-independent basis, Debye):
    X=             -0.0979    Y=             -0.0513    Z=              0.4594  Tot=              0.4725
 Quadrupole moment (field-independent basis, Debye-Ang):
   XX=            -31.8681   YY=            -31.6639   ZZ=            -38.0623
   XY=             -0.2051   XZ=             -0.2997   YZ=             -0.4087

 Normal termination of Gaussian 16 at Fri Nov 10 18:23:04 2023.
