 Gaussian 16, Revision B.01,
 Gaussian 16:  EM64L-G16RevB.01 20-Dec-2017

 ---------------------------------
 # TD=(NStates=1) B3LYP/6-31G(d,p)
 ---------------------------------

 -------
 ABSSPCT
 -------
 Symbolic Z-matrix:
 Charge =  0 Multiplicity = 1

                         Standard orientation:
 ---------------------------------------------------------------------
 Center     Atomic      Atomic             Coordinates (Angstroms)
 Number     Number       Type             X           Y           Z
 ---------------------------------------------------------------------
      1          6           0        1.090665   -0.935024   -0.039214
      2          6           0       -0.335125   -1.363815    0.032212
      3          6           0       -1.327196   -0.422755   -0.048673
      4          6           0       -1.075624    0.874977    0.016211
      5          6           0        0.287658    1.342002    0.029161
      6          6           0        1.371340    0.467493   -0.009339
      7          1           0        1.928198   -1.562714   -0.060481
      8          1           0        2.287691    0.728147    0.102765
      9          1           0        0.516774    2.442953   -0.068247
     10          1           0       -1.882237    1.726480    0.007028
     11          1           0       -2.436123   -0.676695   -0.031381
     12          1           0       -0.484613   -2.435436    0.168170
 ---------------------------------------------------------------------

 SCF Done:  E(RB3LYP) =  -232.213769982     A.U. after   13 cycles

 Excitation energies and oscillator strengths:

 Excited State   1:      Singlet-A      5.3523 eV  231.65 nm  f=0.0006  <S**2>=0.000
      20 -> 22        -0.48804
      21 -> 23         0.50549
 This state for optimization and/or second-order correction.
 Total Energy, E(TD-HF/TD-DFT) =  -232.017076839
 Copying the excited state density for this state as the 1-particle RhoCI density.

 The electronic state is 1-A.
 Alpha  occ. eigenvalues --  -10.19777 -10.19489 -10.19366 -10.19314 -10.18802
 Alpha  occ. eigenvalues --  -10.17793  -0.84475  -0.75343  -0.72467  -0.60479
 Alpha  occ. eigenvalues --   -0.59382  -0.51495  -0.46371  -0.44291  -0.42280
 Alpha  occ. eigenvalues --   -0.40161  -0.35778  -0.34343  -0.32905  -0.25547
 Alpha  occ. eigenvalues --   -0.23409
 Alpha virt. eigenvalues --   -0.01167   0.00778   0.08096   0.14265   0.14363
 Alpha virt. eigenvalues --    0.15599   0.16776   0.17407   0.20286   0.27630
 Alpha virt. eigenvalues --    0.29332   0.30741   0.32998   0.46787   0.51478

 Mulliken charges:
               1
     1  C   -0.104803
     2  C   -0.100326
     3  C   -0.067534
     4  C   -0.078437
     5  C   -0.099656
     6  C   -0.047197
     7  H    0.086803
     8  H    0.073049
     9  H    0.079244
    10  H    0.084761
    11  H    0.083290
    12  H    0.090807
 Sum of Mulliken charges =  -0.00000

 Dipole moment (field-independent basis, Debye):
    X=              0.1726    Y=             -0.0215    Z=              0.0796  Tot=              0.1913
 Quadrupole moment (field-independent basis, Debye-Ang):
   XX=            -31.0860   YY=            -31.9638   ZZ=            -38.6012
   XY=             -0.3199   XZ=              0.0571   YZ=             -0.3357

 Normal termination of Gaussian 16 at Fri Nov 10 16:40:33 2023.
