 Gaussian 16, Revision B.01,
 Gaussian 16:  EM64L-G16RevB.01 20-Dec-2017

 ---------------------------------
 # TD=(NStates=1) B3LYP/6-31G(d,p)
 ---------------------------------

 -------
 ABSSPCT
 -------
 Symbolic Z-matrix:
 Charge =  0 Multiplicity = 1

                         Standard orientation:
 ---------------------------------------------------------------------
 Center     Atomic      Atomic             Coordinates (Angstroms)
 Number     Number       Type             X           Y           Z
 ---------------------------------------------------------------------
      1          6           0       -0.856234   -1.111112   -0.011239
      2          6           0       -1.396036    0.189936    0.020139
      3          6           0       -0.501185    1.285125   -0.047383
      4          6           0        0.819447    1.110077    0.026632
      5          6           0        1.351494   -0.195957   -0.009093
      6          6           0        0.586048   -1.280840   -0.053529
      7          1           0       -1.451791   -1.939430    0.173176
      8          1           0        0.920825   -2.199204    0.077864
      9          1           0        2.517412   -0.240622    0.111215
     10          1           0        1.476201    1.913163    0.027158
     11          1           0       -0.942816    2.303688    0.065735
     12          1           0       -2.541036    0.179034   -0.008310
 ---------------------------------------------------------------------

 SCF Done:  E(RB3LYP) =  -232.223100033     A.U. after   13 cycles

 Excitation energies and oscillator strengths:

 Excited State   1:      Singlet-A      5.5617 eV  222.92 nm  f=0.0005  <S**2>=0.000
      20 -> 22         0.47316
      20 -> 23         0.11229
      21 -> 22        -0.14233
      21 -> 23         0.49277
 This state for optimization and/or second-order correction.
 Total Energy, E(TD-HF/TD-DFT) =  -232.018709972
 Copying the excited state density for this state as the 1-particle RhoCI density.

 The electronic state is 1-A.
 Alpha  occ. eigenvalues --  -10.19562 -10.18962 -10.18849 -10.18627 -10.17829
 Alpha  occ. eigenvalues --  -10.17603  -0.85137  -0.74933  -0.73793  -0.60481
 Alpha  occ. eigenvalues --   -0.59550  -0.52002  -0.46106  -0.44522  -0.42460
 Alpha  occ. eigenvalues --   -0.40404  -0.36290  -0.34785  -0.32403  -0.25348
 Alpha  occ. eigenvalues --   -0.24371
 Alpha virt. eigenvalues --   -0.00190   0.00579   0.08691   0.13073   0.15161
 Alpha virt. eigenvalues --    0.15997   0.17178   0.19114   0.20341   0.28754
 Alpha virt. eigenvalues --    0.30058   0.30941   0.34525   0.46217   0.51664

 Mulliken charges:
               1
     1  C   -0.097620
     2  C   -0.091072
     3  C   -0.091237
     4  C   -0.061946
     5  C   -0.086049
     6  C   -0.059751
     7  H    0.084476
     8  H    0.077244
     9  H    0.072744
    10  H    0.084516
    11  H    0.081342
    12  H    0.087353
 Sum of Mulliken charges =  -0.00000

 Dipole moment (field-independent basis, Debye):
    X=             -0.0055    Y=             -0.0900    Z=              0.2634  Tot=              0.2784
 Quadrupole moment (field-independent basis, Debye-Ang):
   XX=            -31.7890   YY=            -31.5367   ZZ=            -38.3305
   XY=              0.5637   XZ=              0.0602   YZ=             -0.2925

 Normal termination of Gaussian 16 at Fri Nov 10 16:21:17 2023.
