 Gaussian 16, Revision B.01,
 Gaussian 16:  EM64L-G16RevB.01 20-Dec-2017

 ---------------------------------
 # TD=(NStates=1) B3LYP/6-31G(d,p)
 ---------------------------------

 -------
 ABSSPCT
 -------
 Symbolic Z-matrix:
 Charge =  0 Multiplicity = 1

                         Standard orientation:
 ---------------------------------------------------------------------
 Center     Atomic      Atomic             Coordinates (Angstroms)
 Number     Number       Type             X           Y           Z
 ---------------------------------------------------------------------
      1          6           0       -0.801672    1.130981   -0.057901
      2          6           0       -1.403959   -0.084491    0.046719
      3          6           0       -0.620836   -1.228672    0.037085
      4          6           0        0.736727   -1.135698   -0.073529
      5          6           0        1.442332    0.045436    0.021006
      6          6           0        0.679104    1.221018   -0.010294
      7          1           0       -1.365263    2.072562   -0.127421
      8          1           0        1.050662    2.259922    0.227714
      9          1           0        2.489369    0.074789    0.057173
     10          1           0        1.456461   -1.858878    0.020089
     11          1           0       -1.190560   -2.161354   -0.021419
     12          1           0       -2.630842   -0.078478    0.065350
 ---------------------------------------------------------------------

 SCF Done:  E(RB3LYP) =  -232.218128577     A.U. after   13 cycles

 Excitation energies and oscillator strengths:

 Excited State   1:      Singlet-A      5.4714 eV  226.60 nm  f=0.0005  <S**2>=0.000
      20 -> 22        -0.48051
      21 -> 23         0.51136
 This state for optimization and/or second-order correction.
 Total Energy, E(TD-HF/TD-DFT) =  -232.017056848
 Copying the excited state density for this state as the 1-particle RhoCI density.

 The electronic state is 1-A.
 Alpha  occ. eigenvalues --  -10.19784 -10.19780 -10.19172 -10.18930 -10.18491
 Alpha  occ. eigenvalues --  -10.17828  -0.85082  -0.75159  -0.73155  -0.60694
 Alpha  occ. eigenvalues --   -0.58870  -0.51763  -0.45709  -0.43968  -0.42245
 Alpha  occ. eigenvalues --   -0.40498  -0.36177  -0.33375  -0.33149  -0.25557
 Alpha  occ. eigenvalues --   -0.23966
 Alpha virt. eigenvalues --   -0.00685   0.00624   0.07741   0.12828   0.14317
 Alpha virt. eigenvalues --    0.15701   0.16915   0.17868   0.19897   0.28101
 Alpha virt. eigenvalues --    0.29624   0.32019   0.32961   0.46476   0.51558

 Mulliken charges:
               1
     1  C   -0.090059
     2  C   -0.071799
     3  C   -0.090493
     4  C   -0.067757
     5  C   -0.088445
     6  C   -0.098782
     7  H    0.086424
     8  H    0.083328
     9  H    0.091959
    10  H    0.079883
    11  H    0.088584
    12  H    0.077156
 Sum of Mulliken charges =  -0.00000

 Dipole moment (field-independent basis, Debye):
    X=              0.0994    Y=              0.0617    Z=              0.1306  Tot=              0.1753
 Quadrupole moment (field-independent basis, Debye-Ang):
   XX=            -31.0579   YY=            -32.3945   ZZ=            -38.5247
   XY=             -0.3113   XZ=              0.4011   YZ=              0.2197

 Normal termination of Gaussian 16 at Fri Nov 10 18:52:11 2023.
