 Gaussian 16, Revision B.01,
 Gaussian 16:  EM64L-G16RevB.01 20-Dec-2017

 ---------------------------------
 # TD=(NStates=1) B3LYP/6-31G(d,p)
 ---------------------------------

 -------
 ABSSPCT
 -------
 Symbolic Z-matrix:
 Charge =  0 Multiplicity = 1

                         Standard orientation:
 ---------------------------------------------------------------------
 Center     Atomic      Atomic             Coordinates (Angstroms)
 Number     Number       Type             X           Y           Z
 ---------------------------------------------------------------------
      1          6           0        1.384412   -0.079938   -0.084689
      2          6           0        0.681037   -1.233133    0.000823
      3          6           0       -0.787278   -1.224376    0.072332
      4          6           0       -1.469895    0.094182   -0.098086
      5          6           0       -0.636610    1.239022   -0.014012
      6          6           0        0.797212    1.192113    0.027237
      7          1           0        2.497235   -0.165025   -0.119494
      8          1           0        1.348654    2.086744    0.424175
      9          1           0       -1.117578    2.234280   -0.011670
     10          1           0       -2.460968    0.095242    0.081176
     11          1           0       -1.266909   -2.065242    0.137060
     12          1           0        1.186301   -2.113222    0.067124
 ---------------------------------------------------------------------

 SCF Done:  E(RB3LYP) =  -232.209538524     A.U. after   14 cycles

 Excitation energies and oscillator strengths:

 Excited State   1:      Singlet-A      5.0881 eV  243.67 nm  f=0.0018  <S**2>=0.000
      20 -> 22         0.49580
      21 -> 22        -0.16127
      21 -> 23        -0.46773
 This state for optimization and/or second-order correction.
 Total Energy, E(TD-HF/TD-DFT) =  -232.022553906
 Copying the excited state density for this state as the 1-particle RhoCI density.

 The electronic state is 1-A.
 Alpha  occ. eigenvalues --  -10.19733 -10.19684 -10.19273 -10.19206 -10.18906
 Alpha  occ. eigenvalues --  -10.18321  -0.83465  -0.74191  -0.73031  -0.60943
 Alpha  occ. eigenvalues --   -0.59224  -0.51629  -0.47590  -0.43310  -0.41633
 Alpha  occ. eigenvalues --   -0.41233  -0.36107  -0.34217  -0.32746  -0.24885
 Alpha  occ. eigenvalues --   -0.23345
 Alpha virt. eigenvalues --   -0.01835   0.00204   0.09330   0.13550   0.14855
 Alpha virt. eigenvalues --    0.16093   0.17537   0.18371   0.19887   0.27088
 Alpha virt. eigenvalues --    0.28878   0.29647   0.32093   0.47311   0.48871

 Mulliken charges:
               1
     1  C   -0.084385
     2  C   -0.063787
     3  C   -0.090562
     4  C   -0.083003
     5  C   -0.099874
     6  C   -0.090506
     7  H    0.079938
     8  H    0.098307
     9  H    0.083721
    10  H    0.090931
    11  H    0.078253
    12  H    0.080966
 Sum of Mulliken charges =  -0.00000

 Dipole moment (field-independent basis, Debye):
    X=             -0.0010    Y=             -0.1416    Z=              0.3933  Tot=              0.4180
 Quadrupole moment (field-independent basis, Debye-Ang):
   XX=            -31.4692   YY=            -31.4235   ZZ=            -38.4922
   XY=              0.0855   XZ=             -0.0042   YZ=              0.3588

 Normal termination of Gaussian 16 at Fri Nov 10 19:16:57 2023.
