 Gaussian 16, Revision B.01,
 Gaussian 16:  EM64L-G16RevB.01 20-Dec-2017

 ---------------------------------
 # TD=(NStates=1) B3LYP/6-31G(d,p)
 ---------------------------------

 -------
 ABSSPCT
 -------
 Symbolic Z-matrix:
 Charge =  0 Multiplicity = 1

                         Standard orientation:
 ---------------------------------------------------------------------
 Center     Atomic      Atomic             Coordinates (Angstroms)
 Number     Number       Type             X           Y           Z
 ---------------------------------------------------------------------
      1          6           0       -0.712571    1.153625   -0.083733
      2          6           0        0.705575    1.160680    0.074041
      3          6           0        1.405384    0.060989   -0.021599
      4          6           0        0.762280   -1.199717   -0.014006
      5          6           0       -0.679100   -1.206662    0.040400
      6          6           0       -1.495733   -0.024315   -0.062360
      7          1           0       -1.156295    2.248763    0.181861
      8          1           0       -2.587423    0.050566    0.078739
      9          1           0       -1.149866   -2.198345    0.214232
     10          1           0        1.327927   -2.075433   -0.085530
     11          1           0        2.477920    0.084683   -0.048315
     12          1           0        1.172726    2.222157    0.062562
 ---------------------------------------------------------------------

 SCF Done:  E(RB3LYP) =  -232.218334305     A.U. after   14 cycles

 Excitation energies and oscillator strengths:

 Excited State   1:      Singlet-A      5.3091 eV  233.53 nm  f=0.0036  <S**2>=0.000
      20 -> 22         0.42523
      20 -> 23        -0.16999
      21 -> 22         0.27640
      21 -> 23         0.46200
 This state for optimization and/or second-order correction.
 Total Energy, E(TD-HF/TD-DFT) =  -232.023229355
 Copying the excited state density for this state as the 1-particle RhoCI density.

 The electronic state is 1-A.
 Alpha  occ. eigenvalues --  -10.20373 -10.20265 -10.20234 -10.19198 -10.18705
 Alpha  occ. eigenvalues --  -10.18201  -0.84608  -0.74702  -0.72839  -0.59778
 Alpha  occ. eigenvalues --   -0.59102  -0.51292  -0.45568  -0.43616  -0.42350
 Alpha  occ. eigenvalues --   -0.40179  -0.35941  -0.33703  -0.32857  -0.25514
 Alpha  occ. eigenvalues --   -0.23797
 Alpha virt. eigenvalues --   -0.01104   0.00150   0.07500   0.13338   0.13746
 Alpha virt. eigenvalues --    0.14696   0.16706   0.17606   0.18968   0.27043
 Alpha virt. eigenvalues --    0.29218   0.30857   0.33497   0.46259   0.49022

 Mulliken charges:
               1
     1  C   -0.100274
     2  C   -0.070453
     3  C   -0.067704
     4  C   -0.080674
     5  C   -0.110271
     6  C   -0.081623
     7  H    0.070150
     8  H    0.104315
     9  H    0.083014
    10  H    0.090274
    11  H    0.083446
    12  H    0.079800
 Sum of Mulliken charges =  -0.00000

 Dipole moment (field-independent basis, Debye):
    X=              0.1013    Y=             -0.1389    Z=              0.2197  Tot=              0.2790
 Quadrupole moment (field-independent basis, Debye-Ang):
   XX=            -31.3752   YY=            -32.1595   ZZ=            -38.7163
   XY=             -0.2011   XZ=             -0.6970   YZ=              0.1918

 Normal termination of Gaussian 16 at Fri Nov 10 17:36:43 2023.
