 Gaussian 16, Revision B.01,
 Gaussian 16:  EM64L-G16RevB.01 20-Dec-2017

 ---------------------------------
 # TD=(NStates=1) B3LYP/6-31G(d,p)
 ---------------------------------

 -------
 ABSSPCT
 -------
 Symbolic Z-matrix:
 Charge =  0 Multiplicity = 1

                         Standard orientation:
 ---------------------------------------------------------------------
 Center     Atomic      Atomic             Coordinates (Angstroms)
 Number     Number       Type             X           Y           Z
 ---------------------------------------------------------------------
      1          6           0       -1.414286   -0.085272   -0.153082
      2          6           0       -0.792486    1.180566    0.038392
      3          6           0        0.673250    1.218504   -0.013836
      4          6           0        1.453626    0.076229    0.014881
      5          6           0        0.753203   -1.190631   -0.027493
      6          6           0       -0.615396   -1.215413    0.044188
      7          1           0       -2.504118   -0.153063    0.051944
      8          1           0       -1.414101   -2.087406    0.217950
      9          1           0        1.414714   -2.036988    0.184765
     10          1           0        2.429345    0.049659   -0.210902
     11          1           0        1.138657    2.245366    0.103289
     12          1           0       -1.411966    2.078534    0.234653
 ---------------------------------------------------------------------

 SCF Done:  E(RB3LYP) =  -232.210271378     A.U. after   13 cycles

 Excitation energies and oscillator strengths:

 Excited State   1:      Singlet-A      5.1591 eV  240.32 nm  f=0.0084  <S**2>=0.000
      20 -> 22        -0.32473
      20 -> 23        -0.28813
      21 -> 22         0.46590
      21 -> 23        -0.30600
 This state for optimization and/or second-order correction.
 Total Energy, E(TD-HF/TD-DFT) =  -232.020677715
 Copying the excited state density for this state as the 1-particle RhoCI density.

 The electronic state is 1-A.
 Alpha  occ. eigenvalues --  -10.20191 -10.19944 -10.19891 -10.19353 -10.19309
 Alpha  occ. eigenvalues --  -10.18790  -0.84218  -0.74519  -0.72968  -0.60238
 Alpha  occ. eigenvalues --   -0.59096  -0.50906  -0.46035  -0.44034  -0.41982
 Alpha  occ. eigenvalues --   -0.39758  -0.36016  -0.34562  -0.31780  -0.25120
 Alpha  occ. eigenvalues --   -0.23991
 Alpha virt. eigenvalues --   -0.01598   0.00006   0.07778   0.12373   0.13171
 Alpha virt. eigenvalues --    0.14816   0.16167   0.18631   0.19118   0.27682
 Alpha virt. eigenvalues --    0.28493   0.30767   0.33049   0.45753   0.47616

 Mulliken charges:
               1
     1  C   -0.095069
     2  C   -0.089904
     3  C   -0.092511
     4  C   -0.073651
     5  C   -0.108013
     6  C   -0.064420
     7  H    0.087155
     8  H    0.079873
     9  H    0.088837
    10  H    0.094131
    11  H    0.079750
    12  H    0.093821
 Sum of Mulliken charges =  -0.00000

 Dipole moment (field-independent basis, Debye):
    X=             -0.0500    Y=              0.1467    Z=              0.3399  Tot=              0.3736
 Quadrupole moment (field-independent basis, Debye-Ang):
   XX=            -30.8545   YY=            -32.8985   ZZ=            -38.6542
   XY=             -0.3162   XZ=             -0.7976   YZ=             -0.0254

 Normal termination of Gaussian 16 at Fri Nov 10 16:17:42 2023.
