 Gaussian 16, Revision B.01,
 Gaussian 16:  EM64L-G16RevB.01 20-Dec-2017

 ---------------------------------
 # TD=(NStates=1) B3LYP/6-31G(d,p)
 ---------------------------------

 -------
 ABSSPCT
 -------
 Symbolic Z-matrix:
 Charge =  0 Multiplicity = 1

                         Standard orientation:
 ---------------------------------------------------------------------
 Center     Atomic      Atomic             Coordinates (Angstroms)
 Number     Number       Type             X           Y           Z
 ---------------------------------------------------------------------
      1          6           0       -1.054986   -0.947037   -0.028010
      2          6           0        0.348794   -1.264712    0.035584
      3          6           0        1.355512   -0.422380   -0.071041
      4          6           0        0.973847    0.948487   -0.042626
      5          6           0       -0.310214    1.314270    0.050547
      6          6           0       -1.337802    0.368380   -0.058922
      7          1           0       -1.760129   -1.527790    0.034925
      8          1           0       -2.410022    0.705557    0.069556
      9          1           0       -0.451917    2.191487    0.220752
     10          1           0        1.818001    1.644095   -0.008995
     11          1           0        2.399945   -0.748247    0.182172
     12          1           0        0.553215   -2.247142    0.188398
 ---------------------------------------------------------------------

 SCF Done:  E(RB3LYP) =  -232.169145167     A.U. after   13 cycles

 Excitation energies and oscillator strengths:

 Excited State   1:      Singlet-A      5.6577 eV  219.14 nm  f=0.0040  <S**2>=0.000
      20 -> 22        -0.33916
      20 -> 23         0.31372
      21 -> 22         0.42147
      21 -> 23         0.32942
 This state for optimization and/or second-order correction.
 Total Energy, E(TD-HF/TD-DFT) =  -231.961228809
 Copying the excited state density for this state as the 1-particle RhoCI density.

 The electronic state is 1-A.
 Alpha  occ. eigenvalues --  -10.18500 -10.18190 -10.18127 -10.17264 -10.16806
 Alpha  occ. eigenvalues --  -10.16087  -0.85882  -0.75278  -0.75255  -0.61488
 Alpha  occ. eigenvalues --   -0.59968  -0.53729  -0.47100  -0.44041  -0.42842
 Alpha  occ. eigenvalues --   -0.42062  -0.36764  -0.34411  -0.32739  -0.25324
 Alpha  occ. eigenvalues --   -0.24495
 Alpha virt. eigenvalues --    0.00082   0.01101   0.10027   0.13635   0.16215
 Alpha virt. eigenvalues --    0.16625   0.19352   0.19832   0.21691   0.29515
 Alpha virt. eigenvalues --    0.30172   0.33725   0.34703   0.45413   0.51145

 Mulliken charges:
               1
     1  C   -0.018690
     2  C   -0.083101
     3  C   -0.082070
     4  C   -0.110499
     5  C   -0.004237
     6  C   -0.107151
     7  H    0.050215
     8  H    0.075696
     9  H    0.044104
    10  H    0.078365
    11  H    0.089104
    12  H    0.068264
 Sum of Mulliken charges =   0.00000

 Dipole moment (field-independent basis, Debye):
    X=             -0.0452    Y=             -0.0200    Z=              0.4368  Tot=              0.4396
 Quadrupole moment (field-independent basis, Debye-Ang):
   XX=            -31.1774   YY=            -32.0844   ZZ=            -37.7154
   XY=              0.2527   XZ=              0.1508   YZ=             -0.0431

 Normal termination of Gaussian 16 at Fri Nov 10 17:05:51 2023.
