 Gaussian 16, Revision B.01,
 Gaussian 16:  EM64L-G16RevB.01 20-Dec-2017

 ---------------------------------
 # TD=(NStates=1) B3LYP/6-31G(d,p)
 ---------------------------------

 -------
 ABSSPCT
 -------
 Symbolic Z-matrix:
 Charge =  0 Multiplicity = 1

                         Standard orientation:
 ---------------------------------------------------------------------
 Center     Atomic      Atomic             Coordinates (Angstroms)
 Number     Number       Type             X           Y           Z
 ---------------------------------------------------------------------
      1          6           0       -1.015563    0.902325    0.014635
      2          6           0        0.358249    1.329752   -0.038985
      3          6           0        1.278165    0.398020    0.026731
      4          6           0        1.025431   -0.967705   -0.030475
      5          6           0       -0.291332   -1.333277   -0.121114
      6          6           0       -1.337908   -0.382522    0.073896
      7          1           0       -2.000918    1.558126    0.116493
      8          1           0       -2.315237   -0.496889   -0.120243
      9          1           0       -0.835316   -2.166544    0.245987
     10          1           0        1.910065   -1.470331    0.166347
     11          1           0        2.388045    0.568634    0.211918
     12          1           0        0.751114    2.327443   -0.168627
 ---------------------------------------------------------------------

 SCF Done:  E(RB3LYP) =  -232.173819132     A.U. after   13 cycles

 Excitation energies and oscillator strengths:

 Excited State   1:      Singlet-A      5.4843 eV  226.07 nm  f=0.0027  <S**2>=0.000
      20 -> 22         0.51707
      21 -> 22         0.16595
      21 -> 23         0.44433
 This state for optimization and/or second-order correction.
 Total Energy, E(TD-HF/TD-DFT) =  -231.972276457
 Copying the excited state density for this state as the 1-particle RhoCI density.

 The electronic state is 1-A.
 Alpha  occ. eigenvalues --  -10.19366 -10.18678 -10.18472 -10.18365 -10.18221
 Alpha  occ. eigenvalues --  -10.16945  -0.86239  -0.76221  -0.74190  -0.62356
 Alpha  occ. eigenvalues --   -0.58718  -0.52162  -0.47019  -0.43988  -0.41835
 Alpha  occ. eigenvalues --   -0.40904  -0.36363  -0.34415  -0.31338  -0.25569
 Alpha  occ. eigenvalues --   -0.24560
 Alpha virt. eigenvalues --   -0.01210   0.00800   0.07866   0.12517   0.15260
 Alpha virt. eigenvalues --    0.15539   0.16325   0.19836   0.21177   0.27485
 Alpha virt. eigenvalues --    0.30057   0.32779   0.34630   0.45228   0.49039

 Mulliken charges:
               1
     1  C   -0.094631
     2  C   -0.080198
     3  C   -0.081354
     4  C   -0.053640
     5  C   -0.111349
     6  C   -0.080778
     7  H    0.069739
     8  H    0.089168
     9  H    0.093461
    10  H    0.085561
    11  H    0.075939
    12  H    0.088083
 Sum of Mulliken charges =  -0.00000

 Dipole moment (field-independent basis, Debye):
    X=              0.0889    Y=              0.1810    Z=              0.2259  Tot=              0.3028
 Quadrupole moment (field-independent basis, Debye-Ang):
   XX=            -30.5541   YY=            -33.9978   ZZ=            -37.9557
   XY=              0.2425   XZ=              0.4238   YZ=             -0.7596

 Normal termination of Gaussian 16 at Fri Nov 10 19:09:53 2023.
