 Gaussian 16, Revision B.01,
 Gaussian 16:  EM64L-G16RevB.01 20-Dec-2017

 ---------------------------------
 # TD=(NStates=1) B3LYP/6-31G(d,p)
 ---------------------------------

 -------
 ABSSPCT
 -------
 Symbolic Z-matrix:
 Charge =  0 Multiplicity = 1

                         Standard orientation:
 ---------------------------------------------------------------------
 Center     Atomic      Atomic             Coordinates (Angstroms)
 Number     Number       Type             X           Y           Z
 ---------------------------------------------------------------------
      1          6           0        0.841548   -1.059805   -0.022771
      2          6           0        1.429830    0.131178   -0.045468
      3          6           0        0.589419    1.247228    0.028245
      4          6           0       -0.871366    1.139600   -0.013085
      5          6           0       -1.395251   -0.131956   -0.047640
      6          6           0       -0.570102   -1.304558   -0.029934
      7          1           0        1.512987   -1.895307    0.343260
      8          1           0       -1.148282   -2.132422    0.132836
      9          1           0       -2.431343   -0.358334    0.121931
     10          1           0       -1.408181    1.934070    0.140128
     11          1           0        0.940700    2.119583    0.101355
     12          1           0        2.389654    0.202285   -0.055590
 ---------------------------------------------------------------------

 SCF Done:  E(RB3LYP) =  -232.183471287     A.U. after   13 cycles

 Excitation energies and oscillator strengths:

 Excited State   1:      Singlet-A      5.3105 eV  233.47 nm  f=0.0005  <S**2>=0.000
      20 -> 22         0.49941
      21 -> 23         0.49073
 This state for optimization and/or second-order correction.
 Total Energy, E(TD-HF/TD-DFT) =  -231.988313362
 Copying the excited state density for this state as the 1-particle RhoCI density.

 The electronic state is 1-A.
 Alpha  occ. eigenvalues --  -10.18837 -10.18592 -10.18488 -10.17910 -10.17845
 Alpha  occ. eigenvalues --  -10.17085  -0.84593  -0.75578  -0.73517  -0.61950
 Alpha  occ. eigenvalues --   -0.59733  -0.53292  -0.47721  -0.44535  -0.42869
 Alpha  occ. eigenvalues --   -0.41262  -0.35929  -0.35200  -0.32353  -0.25230
 Alpha  occ. eigenvalues --   -0.23445
 Alpha virt. eigenvalues --   -0.01119   0.00741   0.10550   0.14131   0.15448
 Alpha virt. eigenvalues --    0.16816   0.18750   0.20029   0.21454   0.27681
 Alpha virt. eigenvalues --    0.29174   0.32466   0.33431   0.45832   0.50448

 Mulliken charges:
               1
     1  C   -0.109744
     2  C   -0.021911
     3  C   -0.085130
     4  C   -0.055559
     5  C   -0.101347
     6  C   -0.070229
     7  H    0.072978
     8  H    0.086386
     9  H    0.078500
    10  H    0.073182
    11  H    0.061075
    12  H    0.071798
 Sum of Mulliken charges =  -0.00000

 Dipole moment (field-independent basis, Debye):
    X=             -0.0055    Y=              0.1942    Z=              0.4766  Tot=              0.5146
 Quadrupole moment (field-independent basis, Debye-Ang):
   XX=            -30.9910   YY=            -32.0197   ZZ=            -37.9764
   XY=              0.6099   XZ=             -0.2192   YZ=             -0.3405

 Normal termination of Gaussian 16 at Fri Nov 10 18:22:35 2023.
