 Gaussian 16, Revision B.01,
 Gaussian 16:  EM64L-G16RevB.01 20-Dec-2017

 ---------------------------------
 # TD=(NStates=1) B3LYP/6-31G(d,p)
 ---------------------------------

 -------
 ABSSPCT
 -------
 Symbolic Z-matrix:
 Charge =  0 Multiplicity = 1

                         Standard orientation:
 ---------------------------------------------------------------------
 Center     Atomic      Atomic             Coordinates (Angstroms)
 Number     Number       Type             X           Y           Z
 ---------------------------------------------------------------------
      1          6           0        1.322425   -0.322517   -0.043613
      2          6           0        0.989158    0.986723    0.088765
      3          6           0       -0.399048    1.309378   -0.040066
      4          6           0       -1.361114    0.328829   -0.068776
      5          6           0       -0.993201   -0.983875    0.038287
      6          6           0        0.375898   -1.298963   -0.026510
      7          1           0        2.413331   -0.662745    0.036347
      8          1           0        0.891873   -2.155966    0.037726
      9          1           0       -1.567019   -1.871479    0.083917
     10          1           0       -2.498373    0.551039    0.157307
     11          1           0       -0.554253    2.349753    0.062169
     12          1           0        1.709732    1.671947   -0.065986
 ---------------------------------------------------------------------

 SCF Done:  E(RB3LYP) =  -232.208731991     A.U. after   13 cycles

 Excitation energies and oscillator strengths:

 Excited State   1:      Singlet-A      5.5477 eV  223.49 nm  f=0.0018  <S**2>=0.000
      20 -> 22        -0.46668
      20 -> 23        -0.13410
      21 -> 22        -0.20832
      21 -> 23         0.46937
 This state for optimization and/or second-order correction.
 Total Energy, E(TD-HF/TD-DFT) =  -232.004856204
 Copying the excited state density for this state as the 1-particle RhoCI density.

 The electronic state is 1-A.
 Alpha  occ. eigenvalues --  -10.19674 -10.18789 -10.18766 -10.17975 -10.17539
 Alpha  occ. eigenvalues --  -10.17105  -0.85677  -0.75112  -0.74423  -0.61631
 Alpha  occ. eigenvalues --   -0.59225  -0.52318  -0.46384  -0.44400  -0.41775
 Alpha  occ. eigenvalues --   -0.40923  -0.36792  -0.34173  -0.32331  -0.25668
 Alpha  occ. eigenvalues --   -0.24349
 Alpha virt. eigenvalues --   -0.00650   0.00712   0.09101   0.12491   0.15442
 Alpha virt. eigenvalues --    0.16368   0.17154   0.18866   0.21357   0.29332
 Alpha virt. eigenvalues --    0.30713   0.31190   0.33814   0.46087   0.51378

 Mulliken charges:
               1
     1  C   -0.098355
     2  C   -0.072731
     3  C   -0.099140
     4  C   -0.087747
     5  C   -0.081076
     6  C   -0.049257
     7  H    0.070699
     8  H    0.073609
     9  H    0.091707
    10  H    0.082105
    11  H    0.087450
    12  H    0.082736
 Sum of Mulliken charges =  -0.00000

 Dipole moment (field-independent basis, Debye):
    X=              0.1634    Y=             -0.0948    Z=              0.1852  Tot=              0.2646
 Quadrupole moment (field-independent basis, Debye-Ang):
   XX=            -32.0107   YY=            -31.6763   ZZ=            -38.1712
   XY=              0.1249   XZ=             -0.4474   YZ=             -0.1488

 Normal termination of Gaussian 16 at Fri Nov 10 17:42:04 2023.
