 Gaussian 16, Revision B.01,
 Gaussian 16:  EM64L-G16RevB.01 20-Dec-2017

 ---------------------------------
 # TD=(NStates=1) B3LYP/6-31G(d,p)
 ---------------------------------

 -------
 ABSSPCT
 -------
 Symbolic Z-matrix:
 Charge =  0 Multiplicity = 1

                         Standard orientation:
 ---------------------------------------------------------------------
 Center     Atomic      Atomic             Coordinates (Angstroms)
 Number     Number       Type             X           Y           Z
 ---------------------------------------------------------------------
      1          6           0       -1.389493    0.251724    0.018077
      2          6           0       -0.873378   -1.114414   -0.006561
      3          6           0        0.506572   -1.215746   -0.060066
      4          6           0        1.427371   -0.234352   -0.022186
      5          6           0        0.813042    1.068854    0.057635
      6          6           0       -0.472648    1.267849   -0.015836
      7          1           0       -2.475400    0.232754   -0.301199
      8          1           0       -0.973119    2.207149    0.067274
      9          1           0        1.537005    1.994296   -0.006955
     10          1           0        2.509700   -0.404581   -0.016224
     11          1           0        0.928019   -2.235281    0.087646
     12          1           0       -1.595003   -1.937828    0.343083
 ---------------------------------------------------------------------

 SCF Done:  E(RB3LYP) =  -232.205225643     A.U. after   13 cycles

 Excitation energies and oscillator strengths:

 Excited State   1:      Singlet-A      5.4757 eV  226.43 nm  f=0.0057  <S**2>=0.000
      20 -> 22         0.52073
      21 -> 22         0.16968
      21 -> 23        -0.44258
 This state for optimization and/or second-order correction.
 Total Energy, E(TD-HF/TD-DFT) =  -232.003997699
 Copying the excited state density for this state as the 1-particle RhoCI density.

 The electronic state is 1-A.
 Alpha  occ. eigenvalues --  -10.19516 -10.19360 -10.19309 -10.19307 -10.18423
 Alpha  occ. eigenvalues --  -10.17767  -0.85768  -0.75420  -0.73375  -0.60413
 Alpha  occ. eigenvalues --   -0.58778  -0.51542  -0.45730  -0.44228  -0.41892
 Alpha  occ. eigenvalues --   -0.40092  -0.37138  -0.34755  -0.30372  -0.26129
 Alpha  occ. eigenvalues --   -0.23875
 Alpha virt. eigenvalues --   -0.01874   0.01530   0.07671   0.12814   0.13191
 Alpha virt. eigenvalues --    0.16303   0.17121   0.17624   0.18615   0.27435
 Alpha virt. eigenvalues --    0.28859   0.32188   0.35542   0.45492   0.49308

 Mulliken charges:
               1
     1  C   -0.115071
     2  C   -0.100926
     3  C   -0.078933
     4  C   -0.072716
     5  C   -0.099315
     6  C   -0.049579
     7  H    0.093651
     8  H    0.088116
     9  H    0.071358
    10  H    0.100098
    11  H    0.068366
    12  H    0.094951
 Sum of Mulliken charges =  -0.00000

 Dipole moment (field-independent basis, Debye):
    X=              0.0492    Y=             -0.0229    Z=              0.0992  Tot=              0.1131
 Quadrupole moment (field-independent basis, Debye-Ang):
   XX=            -31.1251   YY=            -32.9818   ZZ=            -38.3076
   XY=              0.0233   XZ=              0.0976   YZ=             -0.6322

 Normal termination of Gaussian 16 at Fri Nov 10 18:53:13 2023.
