 Gaussian 16, Revision B.01,
 Gaussian 16:  EM64L-G16RevB.01 20-Dec-2017

 ---------------------------------
 # TD=(NStates=1) B3LYP/6-31G(d,p)
 ---------------------------------

 -------
 ABSSPCT
 -------
 Symbolic Z-matrix:
 Charge =  0 Multiplicity = 1

                         Standard orientation:
 ---------------------------------------------------------------------
 Center     Atomic      Atomic             Coordinates (Angstroms)
 Number     Number       Type             X           Y           Z
 ---------------------------------------------------------------------
      1          6           0       -1.442252    0.150503   -0.025453
      2          6           0       -0.558191    1.312021    0.105255
      3          6           0        0.847140    1.058173   -0.045529
      4          6           0        1.405201   -0.167708    0.013565
      5          6           0        0.544480   -1.212597    0.009927
      6          6           0       -0.873034   -1.151349   -0.030302
      7          1           0       -2.407427    0.373550   -0.012853
      8          1           0       -1.346038   -1.969536   -0.161170
      9          1           0        0.970128   -2.341694    0.254385
     10          1           0        2.527361   -0.307495   -0.052761
     11          1           0        1.641289    1.928086   -0.187476
     12          1           0       -0.925379    2.382837   -0.004900
 ---------------------------------------------------------------------

 SCF Done:  E(RB3LYP) =  -232.194948958     A.U. after   13 cycles

 Excitation energies and oscillator strengths:

 Excited State   1:      Singlet-A      5.3352 eV  232.39 nm  f=0.0007  <S**2>=0.000
      20 -> 22         0.48244
      21 -> 23         0.50237
 This state for optimization and/or second-order correction.
 Total Energy, E(TD-HF/TD-DFT) =  -231.998884108
 Copying the excited state density for this state as the 1-particle RhoCI density.

 The electronic state is 1-A.
 Alpha  occ. eigenvalues --  -10.20360 -10.19859 -10.19759 -10.19379 -10.18646
 Alpha  occ. eigenvalues --  -10.18408  -0.84731  -0.75042  -0.72980  -0.60606
 Alpha  occ. eigenvalues --   -0.59330  -0.51746  -0.45805  -0.43375  -0.43148
 Alpha  occ. eigenvalues --   -0.40152  -0.36315  -0.33720  -0.32484  -0.25301
 Alpha  occ. eigenvalues --   -0.24068
 Alpha virt. eigenvalues --   -0.00913  -0.00030   0.07274   0.12461   0.13906
 Alpha virt. eigenvalues --    0.15260   0.17335   0.18026   0.19096   0.27460
 Alpha virt. eigenvalues --    0.29038   0.31749   0.32928   0.45434   0.48765

 Mulliken charges:
               1
     1  C   -0.089329
     2  C   -0.105955
     3  C   -0.087286
     4  C   -0.054561
     5  C   -0.099110
     6  C   -0.039699
     7  H    0.084060
     8  H    0.075354
     9  H    0.058443
    10  H    0.093978
    11  H    0.070919
    12  H    0.093186
 Sum of Mulliken charges =  -0.00000

 Dipole moment (field-independent basis, Debye):
    X=             -0.1070    Y=              0.0191    Z=             -0.1507  Tot=              0.1858
 Quadrupole moment (field-independent basis, Debye-Ang):
   XX=            -31.3276   YY=            -32.2235   ZZ=            -38.6270
   XY=              0.0868   XZ=              0.0816   YZ=             -0.3735

 Normal termination of Gaussian 16 at Fri Nov 10 19:27:15 2023.
