 Gaussian 16, Revision B.01,
 Gaussian 16:  EM64L-G16RevB.01 20-Dec-2017

 ---------------------------------
 # TD=(NStates=1) B3LYP/6-31G(d,p)
 ---------------------------------

 -------
 ABSSPCT
 -------
 Symbolic Z-matrix:
 Charge =  0 Multiplicity = 1

                         Standard orientation:
 ---------------------------------------------------------------------
 Center     Atomic      Atomic             Coordinates (Angstroms)
 Number     Number       Type             X           Y           Z
 ---------------------------------------------------------------------
      1          6           0        1.401312    0.239243   -0.022501
      2          6           0        0.472205    1.303907    0.007454
      3          6           0       -0.862437    1.070654    0.007152
      4          6           0       -1.405551   -0.246373   -0.031365
      5          6           0       -0.522428   -1.270006    0.015435
      6          6           0        0.877155   -1.089808    0.043594
      7          1           0        2.643108    0.252460   -0.055346
      8          1           0        1.560249   -1.894368   -0.033641
      9          1           0       -0.889073   -2.266870   -0.062047
     10          1           0       -2.427307   -0.269456   -0.020199
     11          1           0       -1.547772    1.874077    0.078967
     12          1           0        0.899265    2.258455   -0.026346
 ---------------------------------------------------------------------

 SCF Done:  E(RB3LYP) =  -232.227445772     A.U. after   13 cycles

 Excitation energies and oscillator strengths:

 Excited State   1:      Singlet-A      5.5110 eV  224.98 nm  f=0.0005  <S**2>=0.000
      20 -> 22         0.50331
      21 -> 22        -0.10941
      21 -> 23         0.47773
 This state for optimization and/or second-order correction.
 Total Energy, E(TD-HF/TD-DFT) =  -232.024921212
 Copying the excited state density for this state as the 1-particle RhoCI density.

 The electronic state is 1-A.
 Alpha  occ. eigenvalues --  -10.20542 -10.18752 -10.18383 -10.18372 -10.18256
 Alpha  occ. eigenvalues --  -10.18025  -0.84778  -0.74575  -0.73752  -0.60181
 Alpha  occ. eigenvalues --   -0.59701  -0.52189  -0.45936  -0.44380  -0.42198
 Alpha  occ. eigenvalues --   -0.40658  -0.36016  -0.34942  -0.32356  -0.25172
 Alpha  occ. eigenvalues --   -0.24257
 Alpha virt. eigenvalues --   -0.00469   0.00789   0.08015   0.13292   0.15245
 Alpha virt. eigenvalues --    0.15947   0.17619   0.18820   0.19894   0.28618
 Alpha virt. eigenvalues --    0.29643   0.30950   0.34294   0.46236   0.52622

 Mulliken charges:
               1
     1  C   -0.097131
     2  C   -0.077011
     3  C   -0.091121
     4  C   -0.059042
     5  C   -0.088697
     6  C   -0.080839
     7  H    0.079701
     8  H    0.085683
     9  H    0.078922
    10  H    0.083797
    11  H    0.081258
    12  H    0.084480
 Sum of Mulliken charges =  -0.00000

 Dipole moment (field-independent basis, Debye):
    X=             -0.1071    Y=             -0.0118    Z=             -0.0695  Tot=              0.1282
 Quadrupole moment (field-independent basis, Debye-Ang):
   XX=            -31.0254   YY=            -32.0336   ZZ=            -38.4782
   XY=             -0.4979   XZ=             -0.1911   YZ=              0.2400

 Normal termination of Gaussian 16 at Fri Nov 10 16:18:27 2023.
