 Gaussian 16, Revision B.01,
 Gaussian 16:  EM64L-G16RevB.01 20-Dec-2017

 ---------------------------------
 # TD=(NStates=1) B3LYP/6-31G(d,p)
 ---------------------------------

 -------
 ABSSPCT
 -------
 Symbolic Z-matrix:
 Charge =  0 Multiplicity = 1

                         Standard orientation:
 ---------------------------------------------------------------------
 Center     Atomic      Atomic             Coordinates (Angstroms)
 Number     Number       Type             X           Y           Z
 ---------------------------------------------------------------------
      1          6           0       -1.131761    0.789542    0.062557
      2          6           0        0.090466    1.388062   -0.068293
      3          6           0        1.306182    0.585938    0.017121
      4          6           0        1.160867   -0.828076   -0.037157
      5          6           0       -0.121020   -1.356629   -0.009162
      6          6           0       -1.343440   -0.608635   -0.003053
      7          1           0       -1.902160    1.532682    0.098121
      8          1           0       -2.297585   -1.043359   -0.071515
      9          1           0       -0.073256   -2.493095   -0.026338
     10          1           0        2.019127   -1.422077    0.207687
     11          1           0        2.250637    1.116895    0.075221
     12          1           0        0.235471    2.487749   -0.055250
 ---------------------------------------------------------------------

 SCF Done:  E(RB3LYP) =  -232.234166467     A.U. after   13 cycles

 Excitation energies and oscillator strengths:

 Excited State   1:      Singlet-A      5.3065 eV  233.64 nm  f=0.0019  <S**2>=0.000
      20 -> 22         0.49892
      20 -> 23         0.11110
      21 -> 22         0.17361
      21 -> 23        -0.45634
 This state for optimization and/or second-order correction.
 Total Energy, E(TD-HF/TD-DFT) =  -232.039155320
 Copying the excited state density for this state as the 1-particle RhoCI density.

 The electronic state is 1-A.
 Alpha  occ. eigenvalues --  -10.19703 -10.19660 -10.19535 -10.19012 -10.18796
 Alpha  occ. eigenvalues --  -10.18782  -0.84067  -0.74404  -0.73098  -0.60828
 Alpha  occ. eigenvalues --   -0.58397  -0.51563  -0.46289  -0.43461  -0.42389
 Alpha  occ. eigenvalues --   -0.40683  -0.35694  -0.34677  -0.32322  -0.25075
 Alpha  occ. eigenvalues --   -0.23892
 Alpha virt. eigenvalues --   -0.01266   0.00563   0.09088   0.13672   0.14315
 Alpha virt. eigenvalues --    0.15220   0.16982   0.18284   0.19228   0.28227
 Alpha virt. eigenvalues --    0.28943   0.30511   0.32285   0.46854   0.49241

 Mulliken charges:
               1
     1  C   -0.084652
     2  C   -0.084115
     3  C   -0.095844
     4  C   -0.078994
     5  C   -0.099124
     6  C   -0.076216
     7  H    0.082271
     8  H    0.096624
     9  H    0.077290
    10  H    0.091141
    11  H    0.087228
    12  H    0.084391
 Sum of Mulliken charges =  -0.00000

 Dipole moment (field-independent basis, Debye):
    X=              0.0205    Y=              0.1208    Z=              0.1529  Tot=              0.1959
 Quadrupole moment (field-independent basis, Debye-Ang):
   XX=            -31.4002   YY=            -31.6793   ZZ=            -38.6716
   XY=              0.1434   XZ=              0.5155   YZ=             -0.0382

 Normal termination of Gaussian 16 at Fri Nov 10 17:07:41 2023.
