 Gaussian 16, Revision B.01,
 Gaussian 16:  EM64L-G16RevB.01 20-Dec-2017

 ---------------------------------
 # TD=(NStates=1) B3LYP/6-31G(d,p)
 ---------------------------------

 -------
 ABSSPCT
 -------
 Symbolic Z-matrix:
 Charge =  0 Multiplicity = 1

                         Standard orientation:
 ---------------------------------------------------------------------
 Center     Atomic      Atomic             Coordinates (Angstroms)
 Number     Number       Type             X           Y           Z
 ---------------------------------------------------------------------
      1          6           0        0.024412    1.409039    0.051722
      2          6           0       -1.230925    0.647528   -0.025847
      3          6           0       -1.194301   -0.660610    0.020334
      4          6           0       -0.010580   -1.385665   -0.063448
      5          6           0        1.214923   -0.719227   -0.003075
      6          6           0        1.211811    0.679015    0.015071
      7          1           0        0.061759    2.471294   -0.081067
      8          1           0        2.202463    1.201274   -0.101086
      9          1           0        1.932539   -1.266925    0.066189
     10          1           0        0.015767   -2.408148    0.129156
     11          1           0       -2.210417   -1.110794    0.068811
     12          1           0       -2.094143    1.292817   -0.050542
 ---------------------------------------------------------------------

 SCF Done:  E(RB3LYP) =  -232.202746925     A.U. after   13 cycles

 Excitation energies and oscillator strengths:

 Excited State   1:      Singlet-A      5.4815 eV  226.19 nm  f=0.0016  <S**2>=0.000
      20 -> 22         0.53892
      21 -> 23         0.45688
 This state for optimization and/or second-order correction.
 Total Energy, E(TD-HF/TD-DFT) =  -232.001306927
 Copying the excited state density for this state as the 1-particle RhoCI density.

 The electronic state is 1-A.
 Alpha  occ. eigenvalues --  -10.19047 -10.18971 -10.18411 -10.18133 -10.18077
 Alpha  occ. eigenvalues --  -10.16952  -0.85096  -0.75346  -0.73784  -0.61188
 Alpha  occ. eigenvalues --   -0.59699  -0.52342  -0.47295  -0.44099  -0.42029
 Alpha  occ. eigenvalues --   -0.41098  -0.36057  -0.35626  -0.32190  -0.25240
 Alpha  occ. eigenvalues --   -0.24155
 Alpha virt. eigenvalues --   -0.00922   0.01141   0.09755   0.14002   0.15797
 Alpha virt. eigenvalues --    0.15853   0.17726   0.18804   0.21177   0.28598
 Alpha virt. eigenvalues --    0.30121   0.32136   0.33659   0.46115   0.51876

 Mulliken charges:
               1
     1  C   -0.100456
     2  C   -0.076583
     3  C   -0.073949
     4  C   -0.100807
     5  C   -0.023320
     6  C   -0.087827
     7  H    0.087882
     8  H    0.077797
     9  H    0.049542
    10  H    0.083319
    11  H    0.078285
    12  H    0.086118
 Sum of Mulliken charges =  -0.00000

 Dipole moment (field-independent basis, Debye):
    X=              0.0310    Y=              0.0009    Z=              0.0247  Tot=              0.0397
 Quadrupole moment (field-independent basis, Debye-Ang):
   XX=            -31.7328   YY=            -31.4164   ZZ=            -38.1725
   XY=             -0.6207   XZ=             -0.0840   YZ=             -0.7446

 Normal termination of Gaussian 16 at Fri Nov 10 18:53:12 2023.
