 Gaussian 16, Revision B.01,
 Gaussian 16:  EM64L-G16RevB.01 20-Dec-2017

 ---------------------------------
 # TD=(NStates=1) B3LYP/6-31G(d,p)
 ---------------------------------

 -------
 ABSSPCT
 -------
 Symbolic Z-matrix:
 Charge =  0 Multiplicity = 1

                         Standard orientation:
 ---------------------------------------------------------------------
 Center     Atomic      Atomic             Coordinates (Angstroms)
 Number     Number       Type             X           Y           Z
 ---------------------------------------------------------------------
      1          6           0       -1.028135   -0.912220   -0.049503
      2          6           0        0.233178   -1.341127   -0.023707
      3          6           0        1.329360   -0.443631    0.040343
      4          6           0        1.062020    0.888923   -0.043387
      5          6           0       -0.256387    1.317954   -0.029127
      6          6           0       -1.348524    0.459004    0.000303
      7          1           0       -1.928018   -1.552827    0.068966
      8          1           0       -2.331914    1.000211    0.284329
      9          1           0       -0.337323    2.403376    0.033068
     10          1           0        1.903448    1.616942    0.058228
     11          1           0        2.355174   -0.908546    0.134323
     12          1           0        0.389564   -2.372575    0.051551
 ---------------------------------------------------------------------

 SCF Done:  E(RB3LYP) =  -232.233843481     A.U. after   13 cycles

 Excitation energies and oscillator strengths:

 Excited State   1:      Singlet-A      5.6203 eV  220.60 nm  f=0.0012  <S**2>=0.000
      20 -> 22         0.48403
      20 -> 23         0.13976
      21 -> 22        -0.19186
      21 -> 23         0.45709
 This state for optimization and/or second-order correction.
 Total Energy, E(TD-HF/TD-DFT) =  -232.027301356
 Copying the excited state density for this state as the 1-particle RhoCI density.

 The electronic state is 1-A.
 Alpha  occ. eigenvalues --  -10.19467 -10.19132 -10.18708 -10.18590 -10.18368
 Alpha  occ. eigenvalues --  -10.17963  -0.85517  -0.74793  -0.73917  -0.60062
 Alpha  occ. eigenvalues --   -0.59356  -0.51714  -0.45882  -0.43433  -0.41656
 Alpha  occ. eigenvalues --   -0.41087  -0.36628  -0.34166  -0.32645  -0.25391
 Alpha  occ. eigenvalues --   -0.24512
 Alpha virt. eigenvalues --   -0.00275   0.01003   0.08101   0.12859   0.13944
 Alpha virt. eigenvalues --    0.15951   0.17231   0.18653   0.19440   0.29612
 Alpha virt. eigenvalues --    0.30426   0.31784   0.34028   0.45698   0.52036

 Mulliken charges:
               1
     1  C   -0.094534
     2  C   -0.071321
     3  C   -0.086897
     4  C   -0.081165
     5  C   -0.084268
     6  C   -0.090725
     7  H    0.084094
     8  H    0.094389
     9  H    0.078363
    10  H    0.083765
    11  H    0.086057
    12  H    0.082243
 Sum of Mulliken charges =  -0.00000

 Dipole moment (field-independent basis, Debye):
    X=              0.0622    Y=              0.0120    Z=              0.3792  Tot=              0.3844
 Quadrupole moment (field-independent basis, Debye-Ang):
   XX=            -31.7734   YY=            -31.8313   ZZ=            -38.3680
   XY=             -0.2252   XZ=             -0.3146   YZ=              0.1131

 Normal termination of Gaussian 16 at Fri Nov 10 19:28:58 2023.
