 Gaussian 16, Revision B.01,
 Gaussian 16:  EM64L-G16RevB.01 20-Dec-2017

 ---------------------------------
 # TD=(NStates=1) B3LYP/6-31G(d,p)
 ---------------------------------

 -------
 ABSSPCT
 -------
 Symbolic Z-matrix:
 Charge =  0 Multiplicity = 1

                         Standard orientation:
 ---------------------------------------------------------------------
 Center     Atomic      Atomic             Coordinates (Angstroms)
 Number     Number       Type             X           Y           Z
 ---------------------------------------------------------------------
      1          6           0       -1.452937   -0.214500    0.032687
      2          6           0       -0.882964    1.137435   -0.083183
      3          6           0        0.642903    1.268632    0.042205
      4          6           0        1.391723    0.157263    0.000123
      5          6           0        0.834618   -1.093709   -0.071593
      6          6           0       -0.527213   -1.294412    0.043832
      7          1           0       -2.511579   -0.196070    0.029925
      8          1           0       -0.928247   -2.212927    0.141772
      9          1           0        1.498625   -1.874644   -0.222769
     10          1           0        2.507170    0.238458    0.269835
     11          1           0        0.997895    2.250760    0.014082
     12          1           0       -1.600650    2.030166   -0.017267
 ---------------------------------------------------------------------

 SCF Done:  E(RB3LYP) =  -232.211730605     A.U. after   13 cycles

 Excitation energies and oscillator strengths:

 Excited State   1:      Singlet-A      5.2103 eV  237.96 nm  f=0.0000  <S**2>=0.000
      20 -> 22         0.50543
      21 -> 23         0.49353
 This state for optimization and/or second-order correction.
 Total Energy, E(TD-HF/TD-DFT) =  -232.020256818
 Copying the excited state density for this state as the 1-particle RhoCI density.

 The electronic state is 1-A.
 Alpha  occ. eigenvalues --  -10.20798 -10.19549 -10.19101 -10.18712 -10.18516
 Alpha  occ. eigenvalues --  -10.18086  -0.84084  -0.74528  -0.72745  -0.60821
 Alpha  occ. eigenvalues --   -0.58685  -0.51791  -0.46804  -0.44130  -0.41894
 Alpha  occ. eigenvalues --   -0.40738  -0.35974  -0.34130  -0.32525  -0.25038
 Alpha  occ. eigenvalues --   -0.23416
 Alpha virt. eigenvalues --   -0.01374   0.00369   0.08864   0.13445   0.15128
 Alpha virt. eigenvalues --    0.15538   0.17366   0.18253   0.18993   0.26569
 Alpha virt. eigenvalues --    0.28063   0.30315   0.33563   0.47168   0.49462

 Mulliken charges:
               1
     1  C   -0.088613
     2  C   -0.119817
     3  C   -0.086926
     4  C   -0.077957
     5  C   -0.071262
     6  C   -0.074713
     7  H    0.094312
     8  H    0.081198
     9  H    0.084969
    10  H    0.083281
    11  H    0.088751
    12  H    0.086778
 Sum of Mulliken charges =  -0.00000

 Dipole moment (field-independent basis, Debye):
    X=             -0.0587    Y=             -0.0660    Z=              0.1353  Tot=              0.1616
 Quadrupole moment (field-independent basis, Debye-Ang):
   XX=            -31.1303   YY=            -31.7296   ZZ=            -38.5777
   XY=             -0.3121   XZ=              0.0721   YZ=              0.1292

 Normal termination of Gaussian 16 at Fri Nov 10 17:19:48 2023.
