 Gaussian 16, Revision B.01,
 Gaussian 16:  EM64L-G16RevB.01 20-Dec-2017

 ---------------------------------
 # TD=(NStates=1) B3LYP/6-31G(d,p)
 ---------------------------------

 -------
 ABSSPCT
 -------
 Symbolic Z-matrix:
 Charge =  0 Multiplicity = 1

                         Standard orientation:
 ---------------------------------------------------------------------
 Center     Atomic      Atomic             Coordinates (Angstroms)
 Number     Number       Type             X           Y           Z
 ---------------------------------------------------------------------
      1          6           0        1.010684    0.977015   -0.024200
      2          6           0       -0.359910    1.337873    0.029586
      3          6           0       -1.366931    0.304943   -0.026362
      4          6           0       -0.995990   -1.051801    0.021524
      5          6           0        0.323083   -1.236712    0.018649
      6          6           0        1.360550   -0.352667   -0.042714
      7          1           0        1.693994    1.762166    0.038392
      8          1           0        2.493601   -0.714803    0.144387
      9          1           0        0.831517   -2.362022   -0.013722
     10          1           0       -1.709964   -1.688100   -0.064410
     11          1           0       -2.426808    0.840651    0.036308
     12          1           0       -0.711258    2.290194    0.000143
 ---------------------------------------------------------------------

 SCF Done:  E(RB3LYP) =  -232.189260933     A.U. after   13 cycles

 Excitation energies and oscillator strengths:

 Excited State   1:      Singlet-A      5.5182 eV  224.68 nm  f=0.0046  <S**2>=0.000
      20 -> 22         0.29764
      20 -> 23        -0.34107
      21 -> 22         0.45016
      21 -> 23         0.30330
 This state for optimization and/or second-order correction.
 Total Energy, E(TD-HF/TD-DFT) =  -231.986471857
 Copying the excited state density for this state as the 1-particle RhoCI density.

 The electronic state is 1-A.
 Alpha  occ. eigenvalues --  -10.20220 -10.19557 -10.19432 -10.18635 -10.18329
 Alpha  occ. eigenvalues --  -10.18037  -0.85583  -0.75438  -0.73525  -0.61305
 Alpha  occ. eigenvalues --   -0.58613  -0.52472  -0.46509  -0.44774  -0.42088
 Alpha  occ. eigenvalues --   -0.39963  -0.36694  -0.33515  -0.31869  -0.25537
 Alpha  occ. eigenvalues --   -0.24468
 Alpha virt. eigenvalues --   -0.00463   0.00416   0.06723   0.11568   0.14569
 Alpha virt. eigenvalues --    0.16100   0.17559   0.18256   0.19944   0.27618
 Alpha virt. eigenvalues --    0.29661   0.31506   0.34550   0.45650   0.50929

 Mulliken charges:
               1
     1  C   -0.085131
     2  C   -0.070201
     3  C   -0.117913
     4  C   -0.033867
     5  C   -0.081759
     6  C   -0.073647
     7  H    0.081812
     8  H    0.088995
     9  H    0.052207
    10  H    0.080353
    11  H    0.079628
    12  H    0.079524
 Sum of Mulliken charges =  -0.00000

 Dipole moment (field-independent basis, Debye):
    X=             -0.0615    Y=              0.2597    Z=              0.0799  Tot=              0.2786
 Quadrupole moment (field-independent basis, Debye-Ang):
   XX=            -31.4680   YY=            -32.3298   ZZ=            -38.4858
   XY=             -0.0811   XZ=              0.3769   YZ=              0.1292

 Normal termination of Gaussian 16 at Fri Nov 10 19:33:12 2023.
