 Gaussian 16, Revision B.01,
 Gaussian 16:  EM64L-G16RevB.01 20-Dec-2017

 ---------------------------------
 # TD=(NStates=1) B3LYP/6-31G(d,p)
 ---------------------------------

 -------
 EMISPCT
 -------
 Symbolic Z-matrix:
 Charge =  0 Multiplicity = 1

                         Standard orientation:
 ---------------------------------------------------------------------
 Center     Atomic      Atomic             Coordinates (Angstroms)
 Number     Number       Type             X           Y           Z
 ---------------------------------------------------------------------
      1          6           0        0.576406   -1.244095    0.075592
      2          6           0        1.387827   -0.145923   -0.004128
      3          6           0        0.882533    1.149887   -0.001375
      4          6           0       -0.598142    1.322817   -0.040883
      5          6           0       -1.425869    0.100713   -0.000789
      6          6           0       -0.850592   -1.127680   -0.037532
      7          1           0        1.084998   -2.243061   -0.093590
      8          1           0       -1.596024   -2.017851   -0.150317
      9          1           0       -2.559175    0.325436    0.264818
     10          1           0       -0.939917    2.182588    0.037860
     11          1           0        1.465380    1.979070   -0.017012
     12          1           0        2.711753   -0.560499    0.012934
 ---------------------------------------------------------------------

 SCF Done:  E(RB3LYP) =  -232.160868614     A.U. after   13 cycles

 Excitation energies and oscillator strengths:

 Excited State   1:      Singlet-A      5.2070 eV  238.11 nm  f=0.0012  <S**2>=0.000
      20 -> 22         0.53471
      21 -> 23         0.46092
 This state for optimization and/or second-order correction.
 Total Energy, E(TD-HF/TD-DFT) =  -231.969515275
 Copying the excited state density for this state as the 1-particle RhoCI density.

 The electronic state is 1-A.
 Alpha  occ. eigenvalues --  -10.21386 -10.20426 -10.20177 -10.19750 -10.19652
 Alpha  occ. eigenvalues --  -10.19281  -0.84140  -0.74265  -0.73505  -0.61646
 Alpha  occ. eigenvalues --   -0.58006  -0.50588  -0.46649  -0.43922  -0.41531
 Alpha  occ. eigenvalues --   -0.39311  -0.35567  -0.34986  -0.31583  -0.25246
 Alpha  occ. eigenvalues --   -0.24015
 Alpha virt. eigenvalues --   -0.01899   0.00153   0.04365   0.09821   0.14068
 Alpha virt. eigenvalues --    0.14953   0.16571   0.16684   0.19393   0.27493
 Alpha virt. eigenvalues --    0.28453   0.30614   0.32170   0.46302   0.49453

 Mulliken charges:
               1
     1  C   -0.082445
     2  C   -0.051489
     3  C   -0.099622
     4  C   -0.062267
     5  C   -0.087048
     6  C   -0.088884
     7  H    0.089494
     8  H    0.090034
     9  H    0.086241
    10  H    0.068138
    11  H    0.090059
    12  H    0.047789
 Sum of Mulliken charges =  -0.00000

 Dipole moment (field-independent basis, Debye):
    X=             -0.2266    Y=              0.1993    Z=              0.0345  Tot=              0.3037
 Quadrupole moment (field-independent basis, Debye-Ang):
   XX=            -32.3586   YY=            -31.3815   ZZ=            -38.9223
   XY=             -0.2578   XZ=             -0.4494   YZ=              0.5605

 Normal termination of Gaussian 16 at Fri Nov 10 22:31:26 2023.
