 Gaussian 16, Revision B.01,
 Gaussian 16:  EM64L-G16RevB.01 20-Dec-2017

 ---------------------------------
 # TD=(NStates=1) B3LYP/6-31G(d,p)
 ---------------------------------

 -------
 EMISPCT
 -------
 Symbolic Z-matrix:
 Charge =  0 Multiplicity = 1

                         Standard orientation:
 ---------------------------------------------------------------------
 Center     Atomic      Atomic             Coordinates (Angstroms)
 Number     Number       Type             X           Y           Z
 ---------------------------------------------------------------------
      1          6           0       -0.066321   -1.360978    0.044885
      2          6           0        1.204378   -0.689028   -0.063198
      3          6           0        1.276230    0.651535    0.001835
      4          6           0        0.119267    1.347948    0.145082
      5          6           0       -1.241809    0.741794   -0.070410
      6          6           0       -1.278919   -0.685513   -0.030034
      7          1           0       -0.140891   -2.298690    0.385071
      8          1           0       -2.154137   -1.151414   -0.154220
      9          1           0       -2.217781    1.452585   -0.074314
     10          1           0        0.055648    2.547241    0.045399
     11          1           0        2.317965    0.903654   -0.308334
     12          1           0        2.062229   -1.487931   -0.062550
 ---------------------------------------------------------------------

 SCF Done:  E(RB3LYP) =  -232.179702537     A.U. after   14 cycles

 Excitation energies and oscillator strengths:

 Excited State   1:      Singlet-A      5.1658 eV  240.01 nm  f=0.0010  <S**2>=0.000
      20 -> 22        -0.46968
      21 -> 23         0.52404
 This state for optimization and/or second-order correction.
 Total Energy, E(TD-HF/TD-DFT) =  -231.989864678
 Copying the excited state density for this state as the 1-particle RhoCI density.

 The electronic state is 1-A.
 Alpha  occ. eigenvalues --  -10.21432 -10.20843 -10.19431 -10.19059 -10.18495
 Alpha  occ. eigenvalues --  -10.17955  -0.84627  -0.75541  -0.72143  -0.60257
 Alpha  occ. eigenvalues --   -0.59024  -0.51050  -0.46849  -0.43480  -0.42145
 Alpha  occ. eigenvalues --   -0.39364  -0.35860  -0.34264  -0.31603  -0.25716
 Alpha  occ. eigenvalues --   -0.23257
 Alpha virt. eigenvalues --   -0.01831   0.00071   0.07421   0.11763   0.13169
 Alpha virt. eigenvalues --    0.14620   0.15969   0.17421   0.19780   0.26558
 Alpha virt. eigenvalues --    0.28881   0.31694   0.32991   0.45349   0.50324

 Mulliken charges:
               1
     1  C   -0.079351
     2  C   -0.095687
     3  C   -0.055323
     4  C   -0.120686
     5  C   -0.096710
     6  C   -0.070847
     7  H    0.084152
     8  H    0.084746
     9  H    0.090878
    10  H    0.073413
    11  H    0.101248
    12  H    0.084167
 Sum of Mulliken charges =  -0.00000

 Dipole moment (field-independent basis, Debye):
    X=             -0.1318    Y=             -0.2895    Z=             -0.1058  Tot=              0.3352
 Quadrupole moment (field-independent basis, Debye-Ang):
   XX=            -31.2522   YY=            -32.5467   ZZ=            -38.5748
   XY=             -0.4767   XZ=             -0.3191   YZ=             -0.7887

 Normal termination of Gaussian 16 at Fri Nov 10 22:49:56 2023.
