 Gaussian 16, Revision B.01,
 Gaussian 16:  EM64L-G16RevB.01 20-Dec-2017

 ---------------------------------
 # TD=(NStates=1) B3LYP/6-31G(d,p)
 ---------------------------------

 -------
 EMISPCT
 -------
 Symbolic Z-matrix:
 Charge =  0 Multiplicity = 1

                         Standard orientation:
 ---------------------------------------------------------------------
 Center     Atomic      Atomic             Coordinates (Angstroms)
 Number     Number       Type             X           Y           Z
 ---------------------------------------------------------------------
      1          6           0       -0.424859   -1.381819   -0.203918
      2          6           0       -1.345656   -0.310237    0.065306
      3          6           0       -1.014786    1.038273   -0.007000
      4          6           0        0.423986    1.374294   -0.105706
      5          6           0        1.445102    0.276378   -0.020091
      6          6           0        0.931409   -1.004987    0.151859
      7          1           0       -0.921120   -2.380337   -0.181978
      8          1           0        1.672195   -1.753478    0.372772
      9          1           0        2.496946    0.382442   -0.100886
     10          1           0        0.800902    2.460036    0.117149
     11          1           0       -1.806350    1.819810    0.222144
     12          1           0       -2.333750   -0.479881    0.288090
 ---------------------------------------------------------------------

 SCF Done:  E(RB3LYP) =  -232.195327869     A.U. after   14 cycles

 Excitation energies and oscillator strengths:

 Excited State   1:      Singlet-A      4.7059 eV  263.46 nm  f=0.0072  <S**2>=0.000
      20 -> 22         0.57635
      21 -> 22        -0.10118
      21 -> 23         0.39340
 This state for optimization and/or second-order correction.
 Total Energy, E(TD-HF/TD-DFT) =  -232.022387684
 Copying the excited state density for this state as the 1-particle RhoCI density.

 The electronic state is 1-A.
 Alpha  occ. eigenvalues --  -10.21496 -10.20360 -10.19925 -10.19819 -10.19738
 Alpha  occ. eigenvalues --  -10.18761  -0.83155  -0.74291  -0.71853  -0.60098
 Alpha  occ. eigenvalues --   -0.58240  -0.50624  -0.46798  -0.42419  -0.42048
 Alpha  occ. eigenvalues --   -0.40229  -0.34935  -0.34647  -0.33077  -0.24088
 Alpha  occ. eigenvalues --   -0.22964
 Alpha virt. eigenvalues --   -0.02975   0.00157   0.08488   0.11256   0.13536
 Alpha virt. eigenvalues --    0.14527   0.15390   0.18341   0.19451   0.26207
 Alpha virt. eigenvalues --    0.28135   0.29401   0.31882   0.44399   0.44727

 Mulliken charges:
               1
     1  C   -0.094960
     2  C   -0.076344
     3  C   -0.086746
     4  C   -0.111076
     5  C   -0.086646
     6  C   -0.086896
     7  H    0.094771
     8  H    0.083539
     9  H    0.101407
    10  H    0.086429
    11  H    0.091436
    12  H    0.085085
 Sum of Mulliken charges =  -0.00000

 Dipole moment (field-independent basis, Debye):
    X=             -0.0241    Y=             -0.1725    Z=              0.4642  Tot=              0.4958
 Quadrupole moment (field-independent basis, Debye-Ang):
   XX=            -30.8971   YY=            -32.3918   ZZ=            -38.8257
   XY=              0.1092   XZ=             -0.4328   YZ=              0.2719

 Normal termination of Gaussian 16 at Fri Nov 10 20:36:55 2023.
