 Gaussian 16, Revision B.01,
 Gaussian 16:  EM64L-G16RevB.01 20-Dec-2017

 ---------------------------------
 # TD=(NStates=1) B3LYP/6-31G(d,p)
 ---------------------------------

 -------
 EMISPCT
 -------
 Symbolic Z-matrix:
 Charge =  0 Multiplicity = 1

                         Standard orientation:
 ---------------------------------------------------------------------
 Center     Atomic      Atomic             Coordinates (Angstroms)
 Number     Number       Type             X           Y           Z
 ---------------------------------------------------------------------
      1          6           0       -0.902661   -1.049744   -0.036662
      2          6           0       -1.493477    0.151921   -0.008318
      3          6           0       -0.522494    1.313834    0.051018
      4          6           0        0.915413    1.126999   -0.075329
      5          6           0        1.493010   -0.231415    0.008982
      6          6           0        0.531892   -1.270785   -0.028761
      7          1           0       -1.517673   -1.913861    0.086648
      8          1           0        0.964307   -2.381074    0.142236
      9          1           0        2.546033   -0.317608    0.213969
     10          1           0        1.510769    1.863302   -0.064380
     11          1           0       -0.991957    2.263515    0.164095
     12          1           0       -2.641576    0.240866   -0.008145
 ---------------------------------------------------------------------

 SCF Done:  E(RB3LYP) =  -232.197383158     A.U. after   13 cycles

 Excitation energies and oscillator strengths:

 Excited State   1:      Singlet-A      5.0754 eV  244.28 nm  f=0.0024  <S**2>=0.000
      20 -> 22        -0.43777
      20 -> 23         0.15034
      21 -> 22         0.22480
      21 -> 23         0.48464
 This state for optimization and/or second-order correction.
 Total Energy, E(TD-HF/TD-DFT) =  -232.010864829
 Copying the excited state density for this state as the 1-particle RhoCI density.

 The electronic state is 1-A.
 Alpha  occ. eigenvalues --  -10.20624 -10.20395 -10.20205 -10.20098 -10.19036
 Alpha  occ. eigenvalues --  -10.18799  -0.82896  -0.74504  -0.71954  -0.60140
 Alpha  occ. eigenvalues --   -0.59182  -0.50795  -0.47125  -0.43288  -0.42247
 Alpha  occ. eigenvalues --   -0.39812  -0.34919  -0.34559  -0.32677  -0.24868
 Alpha  occ. eigenvalues --   -0.23344
 Alpha virt. eigenvalues --   -0.01309  -0.00423   0.08468   0.12818   0.13127
 Alpha virt. eigenvalues --    0.15266   0.16098   0.18110   0.19379   0.25712
 Alpha virt. eigenvalues --    0.27912   0.30041   0.31322   0.47024   0.48256

 Mulliken charges:
               1
     1  C   -0.064532
     2  C   -0.093082
     3  C   -0.107341
     4  C   -0.066210
     5  C   -0.090943
     6  C   -0.094117
     7  H    0.084057
     8  H    0.073159
     9  H    0.101381
    10  H    0.071539
    11  H    0.088241
    12  H    0.097849
 Sum of Mulliken charges =  -0.00000

 Dipole moment (field-independent basis, Debye):
    X=             -0.0073    Y=              0.1225    Z=              0.3317  Tot=              0.3536
 Quadrupole moment (field-independent basis, Debye-Ang):
   XX=            -30.1949   YY=            -32.4475   ZZ=            -38.9245
   XY=              0.2491   XZ=              0.2732   YZ=             -0.2388

 Normal termination of Gaussian 16 at Fri Nov 10 22:12:04 2023.
