 Gaussian 16, Revision B.01,
 Gaussian 16:  EM64L-G16RevB.01 20-Dec-2017

 ---------------------------------
 # TD=(NStates=1) B3LYP/6-31G(d,p)
 ---------------------------------

 -------
 EMISPCT
 -------
 Symbolic Z-matrix:
 Charge =  0 Multiplicity = 1

                         Standard orientation:
 ---------------------------------------------------------------------
 Center     Atomic      Atomic             Coordinates (Angstroms)
 Number     Number       Type             X           Y           Z
 ---------------------------------------------------------------------
      1          6           0       -0.345790   -1.384829    0.068078
      2          6           0        1.096407   -0.991888   -0.023667
      3          6           0        1.363286    0.359078   -0.113146
      4          6           0        0.371463    1.402953    0.049493
      5          6           0       -1.056666    0.978756   -0.011056
      6          6           0       -1.398465   -0.361365   -0.051200
      7          1           0       -0.765439   -2.333542    0.099695
      8          1           0       -2.422842   -0.784077   -0.150937
      9          1           0       -1.750028    1.738569    0.071526
     10          1           0        0.607399    2.443981    0.286724
     11          1           0        2.408777    0.771282   -0.063960
     12          1           0        1.740718   -1.852447    0.245941
 ---------------------------------------------------------------------

 SCF Done:  E(RB3LYP) =  -232.213162223     A.U. after   14 cycles

 Excitation energies and oscillator strengths:

 Excited State   1:      Singlet-A      5.0083 eV  247.56 nm  f=0.0003  <S**2>=0.000
      20 -> 22         0.48420
      21 -> 23         0.51479
 This state for optimization and/or second-order correction.
 Total Energy, E(TD-HF/TD-DFT) =  -232.029111378
 Copying the excited state density for this state as the 1-particle RhoCI density.

 The electronic state is 1-A.
 Alpha  occ. eigenvalues --  -10.20515 -10.20432 -10.20174 -10.19689 -10.19627
 Alpha  occ. eigenvalues --  -10.19202  -0.82620  -0.73970  -0.72174  -0.60384
 Alpha  occ. eigenvalues --   -0.58594  -0.50633  -0.47241  -0.43999  -0.40567
 Alpha  occ. eigenvalues --   -0.40442  -0.35908  -0.34710  -0.31423  -0.25148
 Alpha  occ. eigenvalues --   -0.22900
 Alpha virt. eigenvalues --   -0.02079  -0.00057   0.09067   0.12364   0.13944
 Alpha virt. eigenvalues --    0.15023   0.16258   0.17832   0.19046   0.25858
 Alpha virt. eigenvalues --    0.26590   0.30102   0.32145   0.46848   0.48227

 Mulliken charges:
               1
     1  C   -0.101234
     2  C   -0.087469
     3  C   -0.095636
     4  C   -0.095787
     5  C   -0.084759
     6  C   -0.083085
     7  H    0.087713
     8  H    0.088281
     9  H    0.084515
    10  H    0.099599
    11  H    0.083696
    12  H    0.104165
 Sum of Mulliken charges =  -0.00000

 Dipole moment (field-independent basis, Debye):
    X=             -0.1201    Y=              0.0168    Z=              0.3268  Tot=              0.3485
 Quadrupole moment (field-independent basis, Debye-Ang):
   XX=            -31.9861   YY=            -30.7933   ZZ=            -38.9196
   XY=              0.4107   XZ=              0.5283   YZ=              0.1898

 Normal termination of Gaussian 16 at Fri Nov 10 22:25:45 2023.
