 Gaussian 16, Revision B.01,
 Gaussian 16:  EM64L-G16RevB.01 20-Dec-2017

 ---------------------------------
 # TD=(NStates=1) B3LYP/6-31G(d,p)
 ---------------------------------

 -------
 EMISPCT
 -------
 Symbolic Z-matrix:
 Charge =  0 Multiplicity = 1

                         Standard orientation:
 ---------------------------------------------------------------------
 Center     Atomic      Atomic             Coordinates (Angstroms)
 Number     Number       Type             X           Y           Z
 ---------------------------------------------------------------------
      1          6           0        0.696178   -1.278460   -0.003153
      2          6           0       -0.716091   -1.241804   -0.039009
      3          6           0       -1.443543    0.027874   -0.075661
      4          6           0       -0.743137    1.237139    0.075022
      5          6           0        0.749784    1.220945    0.059398
      6          6           0        1.448715   -0.004001   -0.035889
      7          1           0        1.380759   -2.124692    0.102322
      8          1           0        2.533634    0.111706   -0.081950
      9          1           0        1.355052    2.229868   -0.133548
     10          1           0       -1.406037    2.109214   -0.029872
     11          1           0       -2.488888   -0.102873   -0.101446
     12          1           0       -1.325954   -1.993381    0.360253
 ---------------------------------------------------------------------

 SCF Done:  E(RB3LYP) =  -232.211742999     A.U. after   13 cycles

 Excitation energies and oscillator strengths:

 Excited State   1:      Singlet-A      4.9807 eV  248.93 nm  f=0.0004  <S**2>=0.000
      20 -> 22         0.48282
      20 -> 23        -0.12456
      21 -> 22        -0.16061
      21 -> 23        -0.47455
 This state for optimization and/or second-order correction.
 Total Energy, E(TD-HF/TD-DFT) =  -232.028706937
 Copying the excited state density for this state as the 1-particle RhoCI density.

 The electronic state is 1-A.
 Alpha  occ. eigenvalues --  -10.21201 -10.20442 -10.20320 -10.20037 -10.19352
 Alpha  occ. eigenvalues --  -10.19302  -0.82671  -0.73596  -0.72628  -0.60165
 Alpha  occ. eigenvalues --   -0.58595  -0.50344  -0.46873  -0.43188  -0.41455
 Alpha  occ. eigenvalues --   -0.40387  -0.34856  -0.34183  -0.32755  -0.24351
 Alpha  occ. eigenvalues --   -0.23878
 Alpha virt. eigenvalues --   -0.01655  -0.00858   0.08611   0.12554   0.13530
 Alpha virt. eigenvalues --    0.14360   0.15693   0.17058   0.19439   0.26584
 Alpha virt. eigenvalues --    0.27363   0.29196   0.31152   0.46007   0.48577

 Mulliken charges:
               1
     1  C   -0.089933
     2  C   -0.099352
     3  C   -0.088840
     4  C   -0.090226
     5  C   -0.098121
     6  C   -0.088752
     7  H    0.094867
     8  H    0.093702
     9  H    0.086354
    10  H    0.091780
    11  H    0.092008
    12  H    0.096515
 Sum of Mulliken charges =  -0.00000

 Dipole moment (field-independent basis, Debye):
    X=             -0.0332    Y=              0.0173    Z=              0.0874  Tot=              0.0951
 Quadrupole moment (field-independent basis, Debye-Ang):
   XX=            -30.5071   YY=            -32.6535   ZZ=            -38.9517
   XY=              0.0350   XZ=             -0.3765   YZ=             -1.1050

 Normal termination of Gaussian 16 at Fri Nov 10 20:19:46 2023.
