 Gaussian 16, Revision B.01,
 Gaussian 16:  EM64L-G16RevB.01 20-Dec-2017

 ---------------------------------
 # TD=(NStates=1) B3LYP/6-31G(d,p)
 ---------------------------------

 -------
 EMISPCT
 -------
 Symbolic Z-matrix:
 Charge =  0 Multiplicity = 1

                         Standard orientation:
 ---------------------------------------------------------------------
 Center     Atomic      Atomic             Coordinates (Angstroms)
 Number     Number       Type             X           Y           Z
 ---------------------------------------------------------------------
      1          6           0        0.920829    1.005690    0.016994
      2          6           0       -0.407030    1.325691    0.105994
      3          6           0       -1.379111    0.338774   -0.094032
      4          6           0       -0.999185   -1.013735   -0.030965
      5          6           0        0.423520   -1.309682    0.029870
      6          6           0        1.443598   -0.347574   -0.033056
      7          1           0        1.630946    1.827551   -0.180467
      8          1           0        2.474540   -0.566780   -0.091471
      9          1           0        0.648883   -2.348986    0.231433
     10          1           0       -1.797483   -1.800098   -0.014786
     11          1           0       -2.460964    0.545633    0.102690
     12          1           0       -0.511656    2.347687   -0.016232
 ---------------------------------------------------------------------

 SCF Done:  E(RB3LYP) =  -232.227936659     A.U. after   13 cycles

 Excitation energies and oscillator strengths:

 Excited State   1:      Singlet-A      5.2402 eV  236.60 nm  f=0.0021  <S**2>=0.000
      20 -> 22         0.30645
      20 -> 23         0.36548
      21 -> 22         0.43762
      21 -> 23        -0.28393
 This state for optimization and/or second-order correction.
 Total Energy, E(TD-HF/TD-DFT) =  -232.035364558
 Copying the excited state density for this state as the 1-particle RhoCI density.

 The electronic state is 1-A.
 Alpha  occ. eigenvalues --  -10.19906 -10.19563 -10.19462 -10.19437 -10.19011
 Alpha  occ. eigenvalues --  -10.17999  -0.84178  -0.74120  -0.73548  -0.60253
 Alpha  occ. eigenvalues --   -0.58880  -0.51660  -0.46111  -0.43752  -0.41745
 Alpha  occ. eigenvalues --   -0.41042  -0.35906  -0.33939  -0.32869  -0.24703
 Alpha  occ. eigenvalues --   -0.24272
 Alpha virt. eigenvalues --   -0.01010  -0.00200   0.09072   0.13550   0.14494
 Alpha virt. eigenvalues --    0.14994   0.17339   0.17636   0.19878   0.27748
 Alpha virt. eigenvalues --    0.28694   0.31590   0.31913   0.46182   0.47750

 Mulliken charges:
               1
     1  C   -0.105574
     2  C   -0.062586
     3  C   -0.099617
     4  C   -0.087469
     5  C   -0.095942
     6  C   -0.070305
     7  H    0.079875
     8  H    0.095409
     9  H    0.080975
    10  H    0.094276
    11  H    0.085053
    12  H    0.085906
 Sum of Mulliken charges =  -0.00000

 Dipole moment (field-independent basis, Debye):
    X=              0.1103    Y=             -0.0665    Z=              0.0092  Tot=              0.1291
 Quadrupole moment (field-independent basis, Debye-Ang):
   XX=            -31.3246   YY=            -31.9552   ZZ=            -38.6015
   XY=              0.4406   XZ=             -0.5352   YZ=             -0.6486

 Normal termination of Gaussian 16 at Fri Nov 10 21:02:11 2023.
