 Gaussian 16, Revision B.01,
 Gaussian 16:  EM64L-G16RevB.01 20-Dec-2017

 ---------------------------------
 # TD=(NStates=1) B3LYP/6-31G(d,p)
 ---------------------------------

 -------
 EMISPCT
 -------
 Symbolic Z-matrix:
 Charge =  0 Multiplicity = 1

                         Standard orientation:
 ---------------------------------------------------------------------
 Center     Atomic      Atomic             Coordinates (Angstroms)
 Number     Number       Type             X           Y           Z
 ---------------------------------------------------------------------
      1          6           0       -1.414587    0.365677   -0.044812
      2          6           0       -1.065197   -1.011211   -0.060334
      3          6           0        0.366171   -1.329309    0.023628
      4          6           0        1.456583   -0.365944   -0.053158
      5          6           0        1.019608    0.981043    0.017371
      6          6           0       -0.375411    1.385316   -0.012948
      7          1           0       -2.464629    0.534399    0.326140
      8          1           0       -0.503789    2.406141    0.059498
      9          1           0        1.673072    1.787423    0.015034
     10          1           0        2.407976   -0.838366    0.191534
     11          1           0        0.790779   -2.272831    0.078123
     12          1           0       -1.826413   -1.770198    0.111185
 ---------------------------------------------------------------------

 SCF Done:  E(RB3LYP) =  -232.212089609     A.U. after   13 cycles

 Excitation energies and oscillator strengths:

 Excited State   1:      Singlet-A      4.9755 eV  249.19 nm  f=0.0032  <S**2>=0.000
      20 -> 22        -0.35525
      20 -> 23        -0.28477
      21 -> 22        -0.37420
      21 -> 23         0.39046
 This state for optimization and/or second-order correction.
 Total Energy, E(TD-HF/TD-DFT) =  -232.029243051
 Copying the excited state density for this state as the 1-particle RhoCI density.

 The electronic state is 1-A.
 Alpha  occ. eigenvalues --  -10.20420 -10.20144 -10.19810 -10.19631 -10.19475
 Alpha  occ. eigenvalues --  -10.19440  -0.82709  -0.73766  -0.72901  -0.60124
 Alpha  occ. eigenvalues --   -0.59260  -0.51298  -0.47179  -0.42667  -0.41920
 Alpha  occ. eigenvalues --   -0.40897  -0.35540  -0.33726  -0.32767  -0.24737
 Alpha  occ. eigenvalues --   -0.23547
 Alpha virt. eigenvalues --   -0.01563  -0.00949   0.09720   0.11560   0.13953
 Alpha virt. eigenvalues --    0.15062   0.17582   0.18412   0.20067   0.26521
 Alpha virt. eigenvalues --    0.27517   0.29289   0.31043   0.45311   0.47200

 Mulliken charges:
               1
     1  C   -0.099282
     2  C   -0.088884
     3  C   -0.087914
     4  C   -0.092656
     5  C   -0.087313
     6  C   -0.082928
     7  H    0.092643
     8  H    0.089418
     9  H    0.081485
    10  H    0.099115
    11  H    0.080122
    12  H    0.096194
 Sum of Mulliken charges =  -0.00000

 Dipole moment (field-independent basis, Debye):
    X=              0.0900    Y=             -0.0534    Z=              0.5100  Tot=              0.5206
 Quadrupole moment (field-independent basis, Debye-Ang):
   XX=            -31.5144   YY=            -31.4916   ZZ=            -38.8118
   XY=             -0.0390   XZ=             -0.3833   YZ=             -0.2120

 Normal termination of Gaussian 16 at Fri Nov 10 20:18:59 2023.
