 Gaussian 16, Revision B.01,
 Gaussian 16:  EM64L-G16RevB.01 20-Dec-2017

 ---------------------------------
 # TD=(NStates=1) B3LYP/6-31G(d,p)
 ---------------------------------

 -------
 EMISPCT
 -------
 Symbolic Z-matrix:
 Charge =  0 Multiplicity = 1

                         Standard orientation:
 ---------------------------------------------------------------------
 Center     Atomic      Atomic             Coordinates (Angstroms)
 Number     Number       Type             X           Y           Z
 ---------------------------------------------------------------------
      1          6           0        1.404320    0.427372    0.087069
      2          6           0        0.275745    1.333378   -0.047238
      3          6           0       -1.092636    0.970778   -0.021672
      4          6           0       -1.345343   -0.370988    0.169517
      5          6           0       -0.315775   -1.434244    0.003716
      6          6           0        1.041847   -0.945624   -0.085832
      7          1           0        2.491436    0.727104    0.288629
      8          1           0        1.853618   -1.663790   -0.274266
      9          1           0       -0.643106   -2.296603   -0.035241
     10          1           0       -2.375768   -0.842696   -0.239767
     11          1           0       -1.714550    1.690977   -0.229876
     12          1           0        0.579415    2.500984   -0.142841
 ---------------------------------------------------------------------

 SCF Done:  E(RB3LYP) =  -232.165623201     A.U. after   13 cycles

 Excitation energies and oscillator strengths:

 Excited State   1:      Singlet-A      4.9386 eV  251.05 nm  f=0.0033  <S**2>=0.000
      20 -> 22         0.46793
      20 -> 23         0.15673
      21 -> 22        -0.25861
      21 -> 23         0.43505
 This state for optimization and/or second-order correction.
 Total Energy, E(TD-HF/TD-DFT) =  -231.984132653
 Copying the excited state density for this state as the 1-particle RhoCI density.

 The electronic state is 1-A.
 Alpha  occ. eigenvalues --  -10.20936 -10.20891 -10.20378 -10.20266 -10.18987
 Alpha  occ. eigenvalues --  -10.18535  -0.83489  -0.74392  -0.72885  -0.60220
 Alpha  occ. eigenvalues --   -0.59139  -0.52417  -0.45532  -0.43369  -0.42919
 Alpha  occ. eigenvalues --   -0.41137  -0.34983  -0.33418  -0.32469  -0.24811
 Alpha  occ. eigenvalues --   -0.23500
 Alpha virt. eigenvalues --   -0.02282  -0.00450   0.07798   0.12307   0.12495
 Alpha virt. eigenvalues --    0.14314   0.16416   0.18430   0.19986   0.25227
 Alpha virt. eigenvalues --    0.26525   0.32062   0.32582   0.44552   0.45407

 Mulliken charges:
               1
     1  C   -0.085909
     2  C   -0.105132
     3  C   -0.030614
     4  C   -0.125813
     5  C   -0.039804
     6  C   -0.093640
     7  H    0.105261
     8  H    0.082506
     9  H    0.071274
    10  H    0.067597
    11  H    0.086926
    12  H    0.067350
 Sum of Mulliken charges =  -0.00000

 Dipole moment (field-independent basis, Debye):
    X=              0.2698    Y=             -0.0282    Z=             -0.3787  Tot=              0.4658
 Quadrupole moment (field-independent basis, Debye-Ang):
   XX=            -31.9751   YY=            -31.7802   ZZ=            -38.6958
   XY=              0.0493   XZ=              1.0453   YZ=              0.2311

 Normal termination of Gaussian 16 at Fri Nov 10 20:25:35 2023.
