 Gaussian 16, Revision B.01,
 Gaussian 16:  EM64L-G16RevB.01 20-Dec-2017

 ---------------------------------
 # TD=(NStates=1) B3LYP/6-31G(d,p)
 ---------------------------------

 -------
 EMISPCT
 -------
 Symbolic Z-matrix:
 Charge =  0 Multiplicity = 1

                         Standard orientation:
 ---------------------------------------------------------------------
 Center     Atomic      Atomic             Coordinates (Angstroms)
 Number     Number       Type             X           Y           Z
 ---------------------------------------------------------------------
      1          6           0        0.974582   -1.005578   -0.090905
      2          6           0        1.427269    0.346959    0.043734
      3          6           0        0.336800    1.371593   -0.062774
      4          6           0       -1.001863    0.998961    0.000917
      5          6           0       -1.382368   -0.370173   -0.037598
      6          6           0       -0.319726   -1.356365    0.053387
      7          1           0        1.805244   -1.543592   -0.017773
      8          1           0       -0.652346   -2.199728    0.191357
      9          1           0       -2.428405   -0.907694    0.020820
     10          1           0       -1.865584    1.771241    0.050266
     11          1           0        0.613043    2.321516    0.204471
     12          1           0        2.319890    0.645874    0.110297
 ---------------------------------------------------------------------

 SCF Done:  E(RB3LYP) =  -232.158106719     A.U. after   14 cycles

 Excitation energies and oscillator strengths:

 Excited State   1:      Singlet-A      5.1689 eV  239.87 nm  f=0.0002  <S**2>=0.000
      20 -> 22         0.51517
      21 -> 23        -0.48340
 This state for optimization and/or second-order correction.
 Total Energy, E(TD-HF/TD-DFT) =  -231.968154470
 Copying the excited state density for this state as the 1-particle RhoCI density.

 The electronic state is 1-A.
 Alpha  occ. eigenvalues --  -10.20289 -10.20109 -10.18775 -10.18612 -10.17839
 Alpha  occ. eigenvalues --  -10.17337  -0.83849  -0.74635  -0.73707  -0.61046
 Alpha  occ. eigenvalues --   -0.60405  -0.52385  -0.48038  -0.44924  -0.41196
 Alpha  occ. eigenvalues --   -0.40364  -0.36667  -0.34904  -0.31188  -0.25159
 Alpha  occ. eigenvalues --   -0.23393
 Alpha virt. eigenvalues --   -0.01783   0.00403   0.09173   0.13539   0.14044
 Alpha virt. eigenvalues --    0.15569   0.17512   0.20092   0.21340   0.27183
 Alpha virt. eigenvalues --    0.27441   0.31044   0.34059   0.45775   0.49473

 Mulliken charges:
               1
     1  C   -0.061149
     2  C   -0.082327
     3  C   -0.094063
     4  C   -0.090852
     5  C   -0.102936
     6  C   -0.032551
     7  H    0.074557
     8  H    0.057556
     9  H    0.087343
    10  H    0.083169
    11  H    0.085082
    12  H    0.076171
 Sum of Mulliken charges =  -0.00000

 Dipole moment (field-independent basis, Debye):
    X=              0.1513    Y=             -0.1535    Z=              0.3711  Tot=              0.4291
 Quadrupole moment (field-independent basis, Debye-Ang):
   XX=            -30.8059   YY=            -32.0400   ZZ=            -38.3697
   XY=              0.7801   XZ=              0.1323   YZ=              0.1788

 Normal termination of Gaussian 16 at Fri Nov 10 22:56:41 2023.
