 Gaussian 16, Revision B.01,
 Gaussian 16:  EM64L-G16RevB.01 20-Dec-2017

 ---------------------------------
 # TD=(NStates=1) B3LYP/6-31G(d,p)
 ---------------------------------

 -------
 EMISPCT
 -------
 Symbolic Z-matrix:
 Charge =  0 Multiplicity = 1

                         Standard orientation:
 ---------------------------------------------------------------------
 Center     Atomic      Atomic             Coordinates (Angstroms)
 Number     Number       Type             X           Y           Z
 ---------------------------------------------------------------------
      1          6           0       -0.412301   -1.348395    0.104219
      2          6           0        1.008372   -0.994101    0.039576
      3          6           0        1.421803    0.292518   -0.057044
      4          6           0        0.409998    1.313984    0.029824
      5          6           0       -1.002217    1.063473   -0.045776
      6          6           0       -1.373117   -0.327418   -0.090242
      7          1           0       -0.778551   -2.340175   -0.025587
      8          1           0       -2.428921   -0.712063   -0.040347
      9          1           0       -1.718649    1.630390    0.173799
     10          1           0        0.505482    2.493189    0.257483
     11          1           0        2.404305    0.656958   -0.161301
     12          1           0        1.701116   -1.728662   -0.087392
 ---------------------------------------------------------------------

 SCF Done:  E(RB3LYP) =  -232.193349952     A.U. after   13 cycles

 Excitation energies and oscillator strengths:

 Excited State   1:      Singlet-A      5.1487 eV  240.81 nm  f=0.0010  <S**2>=0.000
      20 -> 22        -0.46597
      20 -> 23         0.11029
      21 -> 22         0.15409
      21 -> 23         0.49653
 This state for optimization and/or second-order correction.
 Total Energy, E(TD-HF/TD-DFT) =  -232.004137332
 Copying the excited state density for this state as the 1-particle RhoCI density.

 The electronic state is 1-A.
 Alpha  occ. eigenvalues --  -10.20772 -10.19467 -10.19259 -10.19171 -10.18968
 Alpha  occ. eigenvalues --  -10.18178  -0.83733  -0.74887  -0.72787  -0.61106
 Alpha  occ. eigenvalues --   -0.58899  -0.51934  -0.47434  -0.43559  -0.42442
 Alpha  occ. eigenvalues --   -0.40428  -0.34944  -0.34254  -0.32850  -0.24979
 Alpha  occ. eigenvalues --   -0.23669
 Alpha virt. eigenvalues --   -0.01289  -0.00321   0.09138   0.13175   0.13732
 Alpha virt. eigenvalues --    0.15124   0.17331   0.18256   0.20318   0.27321
 Alpha virt. eigenvalues --    0.28518   0.30586   0.31568   0.45145   0.50656

 Mulliken charges:
               1
     1  C   -0.086673
     2  C   -0.088761
     3  C   -0.069125
     4  C   -0.109955
     5  C   -0.048115
     6  C   -0.104605
     7  H    0.088990
     8  H    0.080260
     9  H    0.078405
    10  H    0.076718
    11  H    0.096253
    12  H    0.086608
 Sum of Mulliken charges =  -0.00000

 Dipole moment (field-independent basis, Debye):
    X=             -0.0142    Y=             -0.0917    Z=              0.0499  Tot=              0.1054
 Quadrupole moment (field-independent basis, Debye-Ang):
   XX=            -31.2543   YY=            -31.9596   ZZ=            -38.5869
   XY=             -0.1876   XZ=             -0.5944   YZ=              0.8455

 Normal termination of Gaussian 16 at Fri Nov 10 20:50:18 2023.
