 Gaussian 16, Revision B.01,
 Gaussian 16:  EM64L-G16RevB.01 20-Dec-2017

 ---------------------------------
 # TD=(NStates=1) B3LYP/6-31G(d,p)
 ---------------------------------

 -------
 EMISPCT
 -------
 Symbolic Z-matrix:
 Charge =  0 Multiplicity = 1

                         Standard orientation:
 ---------------------------------------------------------------------
 Center     Atomic      Atomic             Coordinates (Angstroms)
 Number     Number       Type             X           Y           Z
 ---------------------------------------------------------------------
      1          6           0       -1.263813    0.675828   -0.121668
      2          6           0       -1.238712   -0.744003    0.056219
      3          6           0        0.021821   -1.429360   -0.018821
      4          6           0        1.248607   -0.714349    0.035947
      5          6           0        1.213419    0.737925    0.053786
      6          6           0       -0.019519    1.430515   -0.034037
      7          1           0       -2.388491    1.143062    0.076421
      8          1           0        0.121062    2.611819    0.196391
      9          1           0        2.107118    1.345593   -0.033900
     10          1           0        2.304875   -1.180037   -0.181785
     11          1           0        0.105159   -2.430849   -0.135019
     12          1           0       -2.020544   -1.228916    0.249339
 ---------------------------------------------------------------------

 SCF Done:  E(RB3LYP) =  -232.184950943     A.U. after   14 cycles

 Excitation energies and oscillator strengths:

 Excited State   1:      Singlet-A      4.9844 eV  248.74 nm  f=0.0019  <S**2>=0.000
      20 -> 23         0.44302
      21 -> 22         0.54807
 This state for optimization and/or second-order correction.
 Total Energy, E(TD-HF/TD-DFT) =  -232.001776562
 Copying the excited state density for this state as the 1-particle RhoCI density.

 The electronic state is 1-A.
 Alpha  occ. eigenvalues --  -10.21587 -10.21188 -10.20582 -10.19586 -10.19086
 Alpha  occ. eigenvalues --  -10.18741  -0.83174  -0.74012  -0.72698  -0.60179
 Alpha  occ. eigenvalues --   -0.59012  -0.50545  -0.46761  -0.43125  -0.41577
 Alpha  occ. eigenvalues --   -0.40012  -0.35078  -0.34529  -0.32667  -0.24425
 Alpha  occ. eigenvalues --   -0.23990
 Alpha virt. eigenvalues --   -0.01563  -0.00949   0.07410   0.11711   0.11860
 Alpha virt. eigenvalues --    0.14035   0.17057   0.17904   0.19458   0.27714
 Alpha virt. eigenvalues --    0.28514   0.29475   0.30624   0.46928   0.48963

 Mulliken charges:
               1
     1  C   -0.104830
     2  C   -0.047313
     3  C   -0.084417
     4  C   -0.092347
     5  C   -0.083630
     6  C   -0.092463
     7  H    0.077618
     8  H    0.087569
     9  H    0.090878
    10  H    0.087262
    11  H    0.085879
    12  H    0.075793
 Sum of Mulliken charges =  -0.00000

 Dipole moment (field-independent basis, Debye):
    X=              0.0578    Y=             -0.1923    Z=              0.1142  Tot=              0.2310
 Quadrupole moment (field-independent basis, Debye-Ang):
   XX=            -31.4451   YY=            -31.9170   ZZ=            -38.9301
   XY=              0.7570   XZ=             -1.0359   YZ=              0.6034

 Normal termination of Gaussian 16 at Fri Nov 10 21:05:58 2023.
