 Gaussian 16, Revision B.01,
 Gaussian 16:  EM64L-G16RevB.01 20-Dec-2017

 ---------------------------------
 # TD=(NStates=1) B3LYP/6-31G(d,p)
 ---------------------------------

 -------
 EMISPCT
 -------
 Symbolic Z-matrix:
 Charge =  0 Multiplicity = 1

                         Standard orientation:
 ---------------------------------------------------------------------
 Center     Atomic      Atomic             Coordinates (Angstroms)
 Number     Number       Type             X           Y           Z
 ---------------------------------------------------------------------
      1          6           0        0.559430   -1.308636   -0.010592
      2          6           0        1.394452   -0.255496    0.028544
      3          6           0        0.845847    1.154072   -0.062637
      4          6           0       -0.492576    1.301431   -0.086179
      5          6           0       -1.472813    0.231799    0.094862
      6          6           0       -0.900794   -1.108825   -0.039894
      7          1           0        0.954777   -2.259726   -0.146220
      8          1           0       -1.378576   -2.063251   -0.168417
      9          1           0       -2.555066    0.241598    0.304896
     10          1           0       -0.850589    2.361936    0.002548
     11          1           0        1.672625    1.879754    0.012367
     12          1           0        2.555557   -0.246383    0.450206
 ---------------------------------------------------------------------

 SCF Done:  E(RB3LYP) =  -232.196512676     A.U. after   13 cycles

 Excitation energies and oscillator strengths:

 Excited State   1:      Singlet-A      5.1026 eV  242.98 nm  f=0.0007  <S**2>=0.000
      20 -> 22         0.51848
      21 -> 23        -0.47312
 This state for optimization and/or second-order correction.
 Total Energy, E(TD-HF/TD-DFT) =  -232.008996169
 Copying the excited state density for this state as the 1-particle RhoCI density.

 The electronic state is 1-A.
 Alpha  occ. eigenvalues --  -10.21122 -10.20270 -10.20223 -10.20110 -10.19652
 Alpha  occ. eigenvalues --  -10.18515  -0.83255  -0.74274  -0.72431  -0.59726
 Alpha  occ. eigenvalues --   -0.58865  -0.50755  -0.45728  -0.43876  -0.41593
 Alpha  occ. eigenvalues --   -0.40224  -0.36255  -0.33807  -0.31146  -0.25091
 Alpha  occ. eigenvalues --   -0.23431
 Alpha virt. eigenvalues --   -0.02044   0.00188   0.07983   0.11293   0.13731
 Alpha virt. eigenvalues --    0.14575   0.15640   0.17449   0.18524   0.25225
 Alpha virt. eigenvalues --    0.27333   0.29526   0.34348   0.45998   0.47099

 Mulliken charges:
               1
     1  C   -0.080950
     2  C   -0.092575
     3  C   -0.073259
     4  C   -0.099579
     5  C   -0.097968
     6  C   -0.098387
     7  H    0.089093
     8  H    0.092124
     9  H    0.107435
    10  H    0.083000
    11  H    0.098278
    12  H    0.072786
 Sum of Mulliken charges =  -0.00000

 Dipole moment (field-independent basis, Debye):
    X=             -0.0659    Y=             -0.0873    Z=              0.2488  Tot=              0.2718
 Quadrupole moment (field-independent basis, Debye-Ang):
   XX=            -31.5997   YY=            -31.7808   ZZ=            -38.8030
   XY=              0.7075   XZ=              0.1970   YZ=              0.6417

 Normal termination of Gaussian 16 at Fri Nov 10 22:19:53 2023.
