 Gaussian 16, Revision B.01,
 Gaussian 16:  EM64L-G16RevB.01 20-Dec-2017

 ---------------------------------
 # TD=(NStates=1) B3LYP/6-31G(d,p)
 ---------------------------------

 -------
 EMISPCT
 -------
 Symbolic Z-matrix:
 Charge =  0 Multiplicity = 1

                         Standard orientation:
 ---------------------------------------------------------------------
 Center     Atomic      Atomic             Coordinates (Angstroms)
 Number     Number       Type             X           Y           Z
 ---------------------------------------------------------------------
      1          6           0        0.555749    1.288324   -0.001078
      2          6           0       -0.846692    1.112832   -0.040793
      3          6           0       -1.473850   -0.198391   -0.005557
      4          6           0       -0.576293   -1.322220   -0.079577
      5          6           0        0.872263   -1.105396   -0.007440
      6          6           0        1.469378    0.140518   -0.007957
      7          1           0        0.836551    2.366354   -0.004230
      8          1           0        2.489171    0.369900    0.101645
      9          1           0        1.531366   -1.928966    0.320564
     10          1           0       -0.982508   -2.193269   -0.088200
     11          1           0       -2.451150   -0.171421    0.485517
     12          1           0       -1.426759    2.063404    0.039114
 ---------------------------------------------------------------------

 SCF Done:  E(RB3LYP) =  -232.206160692     A.U. after   13 cycles

 Excitation energies and oscillator strengths:

 Excited State   1:      Singlet-A      4.9179 eV  252.11 nm  f=0.0036  <S**2>=0.000
      20 -> 22         0.45213
      20 -> 23        -0.25614
      21 -> 22         0.32661
      21 -> 23         0.35047
 This state for optimization and/or second-order correction.
 Total Energy, E(TD-HF/TD-DFT) =  -232.025432678
 Copying the excited state density for this state as the 1-particle RhoCI density.

 The electronic state is 1-A.
 Alpha  occ. eigenvalues --  -10.19998 -10.19979 -10.19654 -10.19446 -10.19343
 Alpha  occ. eigenvalues --  -10.19331  -0.83020  -0.73793  -0.73072  -0.60533
 Alpha  occ. eigenvalues --   -0.58973  -0.51274  -0.46757  -0.43154  -0.42310
 Alpha  occ. eigenvalues --   -0.40511  -0.35816  -0.33907  -0.32777  -0.24079
 Alpha  occ. eigenvalues --   -0.23808
 Alpha virt. eigenvalues --   -0.01964  -0.00440   0.09279   0.12140   0.14148
 Alpha virt. eigenvalues --    0.15544   0.17312   0.18200   0.19238   0.27619
 Alpha virt. eigenvalues --    0.28043   0.29315   0.31036   0.47324   0.48341

 Mulliken charges:
               1
     1  C   -0.084299
     2  C   -0.095217
     3  C   -0.103614
     4  C   -0.079008
     5  C   -0.095085
     6  C   -0.080751
     7  H    0.083315
     8  H    0.095557
     9  H    0.090169
    10  H    0.081777
    11  H    0.105963
    12  H    0.081193
 Sum of Mulliken charges =  -0.00000

 Dipole moment (field-independent basis, Debye):
    X=              0.0534    Y=              0.0361    Z=              0.5561  Tot=              0.5598
 Quadrupole moment (field-independent basis, Debye-Ang):
   XX=            -31.6227   YY=            -31.6929   ZZ=            -38.5504
   XY=              0.1180   XZ=             -0.3871   YZ=             -0.2845

 Normal termination of Gaussian 16 at Fri Nov 10 21:24:15 2023.
