 Gaussian 16, Revision B.01,
 Gaussian 16:  EM64L-G16RevB.01 20-Dec-2017

 ---------------------------------
 # TD=(NStates=1) B3LYP/6-31G(d,p)
 ---------------------------------

 -------
 EMISPCT
 -------
 Symbolic Z-matrix:
 Charge =  0 Multiplicity = 1

                         Standard orientation:
 ---------------------------------------------------------------------
 Center     Atomic      Atomic             Coordinates (Angstroms)
 Number     Number       Type             X           Y           Z
 ---------------------------------------------------------------------
      1          6           0        1.128549   -0.782109   -0.009044
      2          6           0        1.312046    0.617547   -0.026700
      3          6           0        0.148137    1.406585    0.027007
      4          6           0       -1.164672    0.775996    0.135658
      5          6           0       -1.324367   -0.601099   -0.089697
      6          6           0       -0.107905   -1.405000   -0.024294
      7          1           0        2.098993   -1.407008    0.323103
      8          1           0       -0.150229   -2.533010    0.177959
      9          1           0       -2.160628   -1.054027   -0.257554
     10          1           0       -1.997276    1.459269    0.160168
     11          1           0        0.074205    2.575211   -0.298602
     12          1           0        2.184198    0.888039   -0.182655
 ---------------------------------------------------------------------

 SCF Done:  E(RB3LYP) =  -232.179801661     A.U. after   13 cycles

 Excitation energies and oscillator strengths:

 Excited State   1:      Singlet-A      5.0682 eV  244.63 nm  f=0.0016  <S**2>=0.000
      20 -> 22         0.39699
      20 -> 23         0.23599
      21 -> 22        -0.29460
      21 -> 23         0.44661
 This state for optimization and/or second-order correction.
 Total Energy, E(TD-HF/TD-DFT) =  -231.993547379
 Copying the excited state density for this state as the 1-particle RhoCI density.

 The electronic state is 1-A.
 Alpha  occ. eigenvalues --  -10.20907 -10.19854 -10.19787 -10.19583 -10.19004
 Alpha  occ. eigenvalues --  -10.17847  -0.83876  -0.74794  -0.72742  -0.61673
 Alpha  occ. eigenvalues --   -0.58254  -0.51390  -0.47784  -0.43237  -0.41795
 Alpha  occ. eigenvalues --   -0.40463  -0.35797  -0.34474  -0.32269  -0.24658
 Alpha  occ. eigenvalues --   -0.23858
 Alpha virt. eigenvalues --   -0.01255  -0.00746   0.08438   0.11230   0.13318
 Alpha virt. eigenvalues --    0.15504   0.17263   0.18644   0.19856   0.26886
 Alpha virt. eigenvalues --    0.29107   0.31222   0.32137   0.47384   0.50152

 Mulliken charges:
               1
     1  C   -0.095640
     2  C   -0.033544
     3  C   -0.100445
     4  C   -0.092664
     5  C   -0.056772
     6  C   -0.100250
     7  H    0.070941
     8  H    0.089369
     9  H    0.080460
    10  H    0.088256
    11  H    0.082880
    12  H    0.067407
 Sum of Mulliken charges =  -0.00000

 Dipole moment (field-independent basis, Debye):
    X=             -0.2259    Y=             -0.0104    Z=             -0.1018  Tot=              0.2480
 Quadrupole moment (field-independent basis, Debye-Ang):
   XX=            -31.5240   YY=            -32.0887   ZZ=            -38.4740
   XY=              0.0590   XZ=              0.3575   YZ=             -1.0083

 Normal termination of Gaussian 16 at Fri Nov 10 22:05:47 2023.
