 Gaussian 16, Revision B.01,
 Gaussian 16:  EM64L-G16RevB.01 20-Dec-2017

 ---------------------------------
 # TD=(NStates=1) B3LYP/6-31G(d,p)
 ---------------------------------

 -------
 EMISPCT
 -------
 Symbolic Z-matrix:
 Charge =  0 Multiplicity = 1

                         Standard orientation:
 ---------------------------------------------------------------------
 Center     Atomic      Atomic             Coordinates (Angstroms)
 Number     Number       Type             X           Y           Z
 ---------------------------------------------------------------------
      1          6           0        0.299845   -1.358607    0.080247
      2          6           0       -1.108385   -0.947169   -0.045419
      3          6           0       -1.410338    0.426402   -0.052120
      4          6           0       -0.278453    1.327072    0.083014
      5          6           0        1.118336    0.993869   -0.001475
      6          6           0        1.406921   -0.466886   -0.126913
      7          1           0        0.671491   -2.377347    0.433972
      8          1           0        2.405407   -0.856975   -0.002765
      9          1           0        1.877272    1.750203   -0.130600
     10          1           0       -0.688542    2.490287    0.294462
     11          1           0       -2.461290    0.724757   -0.130066
     12          1           0       -1.971892   -1.579013   -0.089001
 ---------------------------------------------------------------------

 SCF Done:  E(RB3LYP) =  -232.203131735     A.U. after   13 cycles

 Excitation energies and oscillator strengths:

 Excited State   1:      Singlet-A      4.8898 eV  253.56 nm  f=0.0042  <S**2>=0.000
      20 -> 22        -0.17965
      20 -> 23         0.40415
      21 -> 22         0.51158
      21 -> 23         0.20565
 This state for optimization and/or second-order correction.
 Total Energy, E(TD-HF/TD-DFT) =  -232.023434158
 Copying the excited state density for this state as the 1-particle RhoCI density.

 The electronic state is 1-A.
 Alpha  occ. eigenvalues --  -10.21427 -10.20888 -10.20689 -10.20407 -10.20066
 Alpha  occ. eigenvalues --  -10.20015  -0.82582  -0.73747  -0.71893  -0.59730
 Alpha  occ. eigenvalues --   -0.58334  -0.50079  -0.46569  -0.43593  -0.41630
 Alpha  occ. eigenvalues --   -0.38936  -0.35655  -0.34963  -0.31315  -0.24603
 Alpha  occ. eigenvalues --   -0.23424
 Alpha virt. eigenvalues --   -0.01561  -0.01255   0.07885   0.11358   0.13306
 Alpha virt. eigenvalues --    0.13782   0.15389   0.17223   0.18096   0.26382
 Alpha virt. eigenvalues --    0.27808   0.28577   0.30195   0.46157   0.47531

 Mulliken charges:
               1
     1  C   -0.096651
     2  C   -0.085472
     3  C   -0.079147
     4  C   -0.083485
     5  C   -0.098164
     6  C   -0.101807
     7  H    0.089116
     8  H    0.097072
     9  H    0.104125
    10  H    0.061990
    11  H    0.100398
    12  H    0.092025
 Sum of Mulliken charges =  -0.00000

 Dipole moment (field-independent basis, Debye):
    X=             -0.0864    Y=             -0.0785    Z=              0.1817  Tot=              0.2160
 Quadrupole moment (field-independent basis, Debye-Ang):
   XX=            -30.1454   YY=            -33.0472   ZZ=            -39.1232
   XY=             -0.0637   XZ=              0.3042   YZ=             -0.5362

 Normal termination of Gaussian 16 at Fri Nov 10 21:00:36 2023.
