 Gaussian 16, Revision B.01,
 Gaussian 16:  EM64L-G16RevB.01 20-Dec-2017

 ---------------------------------
 # TD=(NStates=1) B3LYP/6-31G(d,p)
 ---------------------------------

 -------
 EMISPCT
 -------
 Symbolic Z-matrix:
 Charge =  0 Multiplicity = 1

                         Standard orientation:
 ---------------------------------------------------------------------
 Center     Atomic      Atomic             Coordinates (Angstroms)
 Number     Number       Type             X           Y           Z
 ---------------------------------------------------------------------
      1          6           0       -1.251144   -0.694468    0.046406
      2          6           0       -0.022408   -1.416001   -0.052701
      3          6           0        1.241594   -0.738947   -0.063236
      4          6           0        1.282281    0.654823    0.046554
      5          6           0        0.010443    1.411528    0.037612
      6          6           0       -1.212284    0.728931   -0.065314
      7          1           0       -2.347769   -1.031026    0.586586
      8          1           0       -2.115597    1.332781   -0.179918
      9          1           0        0.086780    2.434898   -0.245183
     10          1           0        2.137554    1.289658    0.175802
     11          1           0        2.004316   -1.213390    0.299401
     12          1           0       -0.056177   -2.488117   -0.332618
 ---------------------------------------------------------------------

 SCF Done:  E(RB3LYP) =  -232.184410323     A.U. after   13 cycles

 Excitation energies and oscillator strengths:

 Excited State   1:      Singlet-A      4.7693 eV  259.97 nm  f=0.0019  <S**2>=0.000
      20 -> 22         0.49280
      20 -> 23         0.14937
      21 -> 22        -0.26039
      21 -> 23         0.40798
 This state for optimization and/or second-order correction.
 Total Energy, E(TD-HF/TD-DFT) =  -232.009143605
 Copying the excited state density for this state as the 1-particle RhoCI density.

 The electronic state is 1-A.
 Alpha  occ. eigenvalues --  -10.21322 -10.20568 -10.19496 -10.19421 -10.18990
 Alpha  occ. eigenvalues --  -10.18327  -0.83508  -0.74312  -0.72772  -0.60055
 Alpha  occ. eigenvalues --   -0.59277  -0.50702  -0.46674  -0.43285  -0.41960
 Alpha  occ. eigenvalues --   -0.40220  -0.36843  -0.34014  -0.31450  -0.24352
 Alpha  occ. eigenvalues --   -0.23558
 Alpha virt. eigenvalues --   -0.02462  -0.00991   0.07354   0.11970   0.13336
 Alpha virt. eigenvalues --    0.15711   0.15894   0.18409   0.19561   0.26653
 Alpha virt. eigenvalues --    0.28482   0.29978   0.32049   0.47384   0.47980

 Mulliken charges:
               1
     1  C   -0.085987
     2  C   -0.119119
     3  C   -0.073217
     4  C   -0.100937
     5  C   -0.086129
     6  C   -0.086415
     7  H    0.086274
     8  H    0.091127
     9  H    0.086564
    10  H    0.091288
    11  H    0.096317
    12  H    0.100232
 Sum of Mulliken charges =  -0.00000

 Dipole moment (field-independent basis, Debye):
    X=              0.0203    Y=              0.1477    Z=              0.1816  Tot=              0.2350
 Quadrupole moment (field-independent basis, Debye-Ang):
   XX=            -31.9459   YY=            -32.1478   ZZ=            -38.3062
   XY=             -0.2047   XZ=              0.1067   YZ=             -0.5565

 Normal termination of Gaussian 16 at Fri Nov 10 20:42:42 2023.
