 Gaussian 16, Revision B.01,
 Gaussian 16:  EM64L-G16RevB.01 20-Dec-2017

 ---------------------------------
 # TD=(NStates=1) B3LYP/6-31G(d,p)
 ---------------------------------

 -------
 EMISPCT
 -------
 Symbolic Z-matrix:
 Charge =  0 Multiplicity = 1

                         Standard orientation:
 ---------------------------------------------------------------------
 Center     Atomic      Atomic             Coordinates (Angstroms)
 Number     Number       Type             X           Y           Z
 ---------------------------------------------------------------------
      1          6           0        0.095524   -1.381922   -0.061372
      2          6           0       -1.233498   -0.814032    0.061267
      3          6           0       -1.316283    0.673992    0.011921
      4          6           0       -0.083195    1.409139   -0.127458
      5          6           0        1.224388    0.741002    0.077339
      6          6           0        1.311801   -0.634543   -0.094153
      7          1           0        0.059341   -2.383945    0.155616
      8          1           0        2.332172   -1.178663   -0.080405
      9          1           0        2.158149    1.451632    0.554042
     10          1           0       -0.130537    2.433228    0.008092
     11          1           0       -2.281877    1.217810   -0.071292
     12          1           0       -2.129671   -1.501877    0.228673
 ---------------------------------------------------------------------

 SCF Done:  E(RB3LYP) =  -232.194996330     A.U. after   14 cycles

 Excitation energies and oscillator strengths:

 Excited State   1:      Singlet-A      4.8793 eV  254.10 nm  f=0.0014  <S**2>=0.000
      20 -> 22         0.45534
      21 -> 23         0.53808
 This state for optimization and/or second-order correction.
 Total Energy, E(TD-HF/TD-DFT) =  -232.015686586
 Copying the excited state density for this state as the 1-particle RhoCI density.

 The electronic state is 1-A.
 Alpha  occ. eigenvalues --  -10.21653 -10.20881 -10.20843 -10.20573 -10.19613
 Alpha  occ. eigenvalues --  -10.19355  -0.82735  -0.73295  -0.72503  -0.59507
 Alpha  occ. eigenvalues --   -0.58441  -0.50060  -0.46188  -0.42669  -0.41409
 Alpha  occ. eigenvalues --   -0.40105  -0.35646  -0.34046  -0.32381  -0.24550
 Alpha  occ. eigenvalues --   -0.23339
 Alpha virt. eigenvalues --   -0.01610  -0.01200   0.07009   0.10823   0.13254
 Alpha virt. eigenvalues --    0.13656   0.15236   0.17790   0.18927   0.26354
 Alpha virt. eigenvalues --    0.27389   0.29680   0.30623   0.46375   0.48114

 Mulliken charges:
               1
     1  C   -0.081259
     2  C   -0.103935
     3  C   -0.095387
     4  C   -0.093363
     5  C   -0.089182
     6  C   -0.084313
     7  H    0.089852
     8  H    0.093909
     9  H    0.082892
    10  H    0.090700
    11  H    0.094549
    12  H    0.095537
 Sum of Mulliken charges =  -0.00000

 Dipole moment (field-independent basis, Debye):
    X=             -0.0620    Y=             -0.0706    Z=              0.4740  Tot=              0.4832
 Quadrupole moment (field-independent basis, Debye-Ang):
   XX=            -31.5809   YY=            -31.6786   ZZ=            -39.0117
   XY=             -0.0294   XZ=              0.4243   YZ=              0.0406

 Normal termination of Gaussian 16 at Fri Nov 10 21:45:54 2023.
