 Gaussian 16, Revision B.01,
 Gaussian 16:  EM64L-G16RevB.01 20-Dec-2017

 ---------------------------------
 # TD=(NStates=1) B3LYP/6-31G(d,p)
 ---------------------------------

 -------
 EMISPCT
 -------
 Symbolic Z-matrix:
 Charge =  0 Multiplicity = 1

                         Standard orientation:
 ---------------------------------------------------------------------
 Center     Atomic      Atomic             Coordinates (Angstroms)
 Number     Number       Type             X           Y           Z
 ---------------------------------------------------------------------
      1          6           0       -1.116934    0.916849   -0.028553
      2          6           0       -1.372160   -0.517213    0.077743
      3          6           0       -0.249711   -1.397003   -0.095378
      4          6           0        1.172909   -0.932609    0.016921
      5          6           0        1.364077    0.546806   -0.058005
      6          6           0        0.147367    1.400083   -0.009423
      7          1           0       -2.056785    1.514626   -0.133253
      8          1           0        0.450216    2.492284    0.110875
      9          1           0        2.532236    0.966964    0.288150
     10          1           0        2.028485   -1.587556    0.080524
     11          1           0       -0.330003   -2.340632   -0.005029
     12          1           0       -2.297439   -1.147162    0.238901
 ---------------------------------------------------------------------

 SCF Done:  E(RB3LYP) =  -232.170775305     A.U. after   14 cycles

 Excitation energies and oscillator strengths:

 Excited State   1:      Singlet-A      4.8852 eV  253.80 nm  f=0.0008  <S**2>=0.000
      20 -> 22         0.52632
      21 -> 23        -0.46111
 This state for optimization and/or second-order correction.
 Total Energy, E(TD-HF/TD-DFT) =  -231.991249254
 Copying the excited state density for this state as the 1-particle RhoCI density.

 The electronic state is 1-A.
 Alpha  occ. eigenvalues --  -10.22206 -10.20894 -10.20814 -10.20551 -10.20410
 Alpha  occ. eigenvalues --  -10.18801  -0.82532  -0.73720  -0.71953  -0.59579
 Alpha  occ. eigenvalues --   -0.58902  -0.50088  -0.46855  -0.43265  -0.41103
 Alpha  occ. eigenvalues --   -0.39766  -0.35382  -0.32871  -0.32567  -0.24389
 Alpha  occ. eigenvalues --   -0.23661
 Alpha virt. eigenvalues --   -0.02207  -0.00815   0.07033   0.10274   0.13435
 Alpha virt. eigenvalues --    0.14310   0.15214   0.15874   0.19388   0.26238
 Alpha virt. eigenvalues --    0.27144   0.27870   0.30913   0.45109   0.47641

 Mulliken charges:
               1
     1  C   -0.087510
     2  C   -0.098495
     3  C   -0.069211
     4  C   -0.100018
     5  C   -0.099993
     6  C   -0.085050
     7  H    0.096316
     8  H    0.094608
     9  H    0.072760
    10  H    0.099273
    11  H    0.074750
    12  H    0.102568
 Sum of Mulliken charges =  -0.00000

 Dipole moment (field-independent basis, Debye):
    X=             -0.1362    Y=             -0.2952    Z=              0.3609  Tot=              0.4858
 Quadrupole moment (field-independent basis, Debye-Ang):
   XX=            -31.3624   YY=            -31.6381   ZZ=            -39.2092
   XY=              0.0430   XZ=              0.5479   YZ=             -0.0994

 Normal termination of Gaussian 16 at Fri Nov 10 22:57:25 2023.
