 Gaussian 16, Revision B.01,
 Gaussian 16:  EM64L-G16RevB.01 20-Dec-2017

 ---------------------------------
 # TD=(NStates=1) B3LYP/6-31G(d,p)
 ---------------------------------

 -------
 EMISPCT
 -------
 Symbolic Z-matrix:
 Charge =  0 Multiplicity = 1

                         Standard orientation:
 ---------------------------------------------------------------------
 Center     Atomic      Atomic             Coordinates (Angstroms)
 Number     Number       Type             X           Y           Z
 ---------------------------------------------------------------------
      1          6           0        1.433833    0.271571   -0.030680
      2          6           0        1.010320   -1.065046   -0.011721
      3          6           0       -0.451222   -1.283684   -0.040223
      4          6           0       -1.493384   -0.353184    0.048791
      5          6           0       -0.950263    1.091429    0.076051
      6          6           0        0.474096    1.357037   -0.014990
      7          1           0        2.390228    0.439360   -0.072159
      8          1           0        0.831421    2.372676   -0.025494
      9          1           0       -1.736514    1.907645   -0.105563
     10          1           0       -2.547384   -0.606372   -0.216834
     11          1           0       -0.689473   -2.343100   -0.079926
     12          1           0        1.611437   -1.878953    0.336613
 ---------------------------------------------------------------------

 SCF Done:  E(RB3LYP) =  -232.202339806     A.U. after   13 cycles

 Excitation energies and oscillator strengths:

 Excited State   1:      Singlet-A      4.8952 eV  253.28 nm  f=0.0052  <S**2>=0.000
      20 -> 22         0.43191
      20 -> 23        -0.20365
      21 -> 22        -0.33031
      21 -> 23        -0.40323
 This state for optimization and/or second-order correction.
 Total Energy, E(TD-HF/TD-DFT) =  -232.022444662
 Copying the excited state density for this state as the 1-particle RhoCI density.

 The electronic state is 1-A.
 Alpha  occ. eigenvalues --  -10.21547 -10.20805 -10.20186 -10.19509 -10.19477
 Alpha  occ. eigenvalues --  -10.18785  -0.82412  -0.73685  -0.72258  -0.60136
 Alpha  occ. eigenvalues --   -0.58749  -0.50766  -0.47428  -0.42914  -0.41749
 Alpha  occ. eigenvalues --   -0.40565  -0.35497  -0.33612  -0.32453  -0.24605
 Alpha  occ. eigenvalues --   -0.23391
 Alpha virt. eigenvalues --   -0.02317  -0.00449   0.09491   0.11629   0.14394
 Alpha virt. eigenvalues --    0.15070   0.16005   0.17645   0.19477   0.24548
 Alpha virt. eigenvalues --    0.27804   0.28994   0.31636   0.44964   0.47099

 Mulliken charges:
               1
     1  C   -0.062925
     2  C   -0.097431
     3  C   -0.086177
     4  C   -0.096319
     5  C   -0.116922
     6  C   -0.082469
     7  H    0.078730
     8  H    0.091816
     9  H    0.089747
    10  H    0.105522
    11  H    0.075367
    12  H    0.101061
 Sum of Mulliken charges =  -0.00000

 Dipole moment (field-independent basis, Debye):
    X=              0.1209    Y=             -0.0089    Z=             -0.1011  Tot=              0.1579
 Quadrupole moment (field-independent basis, Debye-Ang):
   XX=            -30.8943   YY=            -31.9108   ZZ=            -38.9153
   XY=             -0.0126   XZ=              1.0385   YZ=             -0.5728

 Normal termination of Gaussian 16 at Fri Nov 10 22:39:11 2023.
