 Gaussian 16, Revision B.01,
 Gaussian 16:  EM64L-G16RevB.01 20-Dec-2017

 ---------------------------------
 # TD=(NStates=1) B3LYP/6-31G(d,p)
 ---------------------------------

 -------
 EMISPCT
 -------
 Symbolic Z-matrix:
 Charge =  0 Multiplicity = 1

                         Standard orientation:
 ---------------------------------------------------------------------
 Center     Atomic      Atomic             Coordinates (Angstroms)
 Number     Number       Type             X           Y           Z
 ---------------------------------------------------------------------
      1          6           0        0.521263   -1.330107   -0.037825
      2          6           0        1.453097   -0.222929    0.010522
      3          6           0        0.902600    1.057372   -0.032145
      4          6           0       -0.512524    1.314547   -0.013898
      5          6           0       -1.459165    0.213146    0.059574
      6          6           0       -0.902667   -1.073459   -0.056394
      7          1           0        0.960342   -2.405024    0.112289
      8          1           0       -1.758109   -1.845159   -0.189107
      9          1           0       -2.460937    0.303300    0.348550
     10          1           0       -0.854592    2.503831   -0.083605
     11          1           0        1.584016    1.966754   -0.144896
     12          1           0        2.513659   -0.275125    0.377769
 ---------------------------------------------------------------------

 SCF Done:  E(RB3LYP) =  -232.208106867     A.U. after   13 cycles

 Excitation energies and oscillator strengths:

 Excited State   1:      Singlet-A      5.0448 eV  245.77 nm  f=0.0038  <S**2>=0.000
      20 -> 22         0.36242
      20 -> 23         0.26865
      21 -> 22         0.38768
      21 -> 23        -0.38184
 This state for optimization and/or second-order correction.
 Total Energy, E(TD-HF/TD-DFT) =  -232.022714053
 Copying the excited state density for this state as the 1-particle RhoCI density.

 The electronic state is 1-A.
 Alpha  occ. eigenvalues --  -10.21349 -10.21252 -10.20645 -10.20148 -10.19883
 Alpha  occ. eigenvalues --  -10.19745  -0.83338  -0.74259  -0.71919  -0.59757
 Alpha  occ. eigenvalues --   -0.58081  -0.50009  -0.45538  -0.43397  -0.41345
 Alpha  occ. eigenvalues --   -0.39402  -0.36782  -0.33303  -0.32171  -0.24879
 Alpha  occ. eigenvalues --   -0.23799
 Alpha virt. eigenvalues --   -0.01656  -0.00596   0.07435   0.11464   0.11636
 Alpha virt. eigenvalues --    0.13734   0.15417   0.16972   0.17836   0.27495
 Alpha virt. eigenvalues --    0.28049   0.29629   0.30878   0.47520   0.48826

 Mulliken charges:
               1
     1  C   -0.106280
     2  C   -0.089018
     3  C   -0.083877
     4  C   -0.089963
     5  C   -0.083002
     6  C   -0.089882
     7  H    0.090914
     8  H    0.087206
     9  H    0.101414
    10  H    0.076152
    11  H    0.085218
    12  H    0.101117
 Sum of Mulliken charges =  -0.00000

 Dipole moment (field-independent basis, Debye):
    X=             -0.0852    Y=              0.0254    Z=              0.3034  Tot=              0.3162
 Quadrupole moment (field-independent basis, Debye-Ang):
   XX=            -31.0804   YY=            -32.5820   ZZ=            -39.0155
   XY=              0.2772   XZ=              0.2909   YZ=             -0.3286

 Normal termination of Gaussian 16 at Fri Nov 10 22:26:32 2023.
