 Gaussian 16, Revision B.01,
 Gaussian 16:  EM64L-G16RevB.01 20-Dec-2017

 ---------------------------------
 # TD=(NStates=1) B3LYP/6-31G(d,p)
 ---------------------------------

 -------
 EMISPCT
 -------
 Symbolic Z-matrix:
 Charge =  0 Multiplicity = 1

                         Standard orientation:
 ---------------------------------------------------------------------
 Center     Atomic      Atomic             Coordinates (Angstroms)
 Number     Number       Type             X           Y           Z
 ---------------------------------------------------------------------
      1          6           0       -1.210905   -0.677837    0.002519
      2          6           0       -1.268713    0.704423    0.023027
      3          6           0        0.038345    1.399720   -0.002992
      4          6           0        1.229606    0.686527   -0.158830
      5          6           0        1.222598   -0.721874    0.042498
      6          6           0       -0.008514   -1.439072   -0.037831
      7          1           0       -2.205973   -1.020557   -0.171390
      8          1           0       -0.136074   -2.476189    0.048696
      9          1           0        2.231935   -1.180287    0.486824
     10          1           0        2.269018    1.238657   -0.052334
     11          1           0        0.033452    2.558999    0.342670
     12          1           0       -2.206863    1.168044    0.135192
 ---------------------------------------------------------------------

 SCF Done:  E(RB3LYP) =  -232.202961962     A.U. after   13 cycles

 Excitation energies and oscillator strengths:

 Excited State   1:      Singlet-A      5.0392 eV  246.04 nm  f=0.0015  <S**2>=0.000
      20 -> 22        -0.44200
      21 -> 23         0.55049
 This state for optimization and/or second-order correction.
 Total Energy, E(TD-HF/TD-DFT) =  -232.017774046
 Copying the excited state density for this state as the 1-particle RhoCI density.

 The electronic state is 1-A.
 Alpha  occ. eigenvalues --  -10.21098 -10.21067 -10.20496 -10.19438 -10.19030
 Alpha  occ. eigenvalues --  -10.18703  -0.83803  -0.74222  -0.72814  -0.60123
 Alpha  occ. eigenvalues --   -0.58172  -0.50840  -0.45291  -0.43626  -0.41174
 Alpha  occ. eigenvalues --   -0.40707  -0.36207  -0.34332  -0.31755  -0.25062
 Alpha  occ. eigenvalues --   -0.23426
 Alpha virt. eigenvalues --   -0.01431  -0.00672   0.07058   0.12252   0.12748
 Alpha virt. eigenvalues --    0.13803   0.16464   0.16859   0.19502   0.27420
 Alpha virt. eigenvalues --    0.28512   0.30681   0.31985   0.46451   0.49381

 Mulliken charges:
               1
     1  C   -0.078224
     2  C   -0.086904
     3  C   -0.090128
     4  C   -0.090005
     5  C   -0.093971
     6  C   -0.089115
     7  H    0.082774
     8  H    0.092725
     9  H    0.093086
    10  H    0.086197
    11  H    0.081466
    12  H    0.092100
 Sum of Mulliken charges =  -0.00000

 Dipole moment (field-independent basis, Debye):
    X=             -0.1231    Y=              0.0087    Z=              0.4673  Tot=              0.4834
 Quadrupole moment (field-independent basis, Debye-Ang):
   XX=            -31.1981   YY=            -32.6488   ZZ=            -38.6947
   XY=             -0.0388   XZ=              0.8317   YZ=              0.3383

 Normal termination of Gaussian 16 at Fri Nov 10 21:21:46 2023.
