 Gaussian 16, Revision B.01,
 Gaussian 16:  EM64L-G16RevB.01 20-Dec-2017

 ---------------------------------
 # TD=(NStates=1) B3LYP/6-31G(d,p)
 ---------------------------------

 -------
 EMISPCT
 -------
 Symbolic Z-matrix:
 Charge =  0 Multiplicity = 1

                         Standard orientation:
 ---------------------------------------------------------------------
 Center     Atomic      Atomic             Coordinates (Angstroms)
 Number     Number       Type             X           Y           Z
 ---------------------------------------------------------------------
      1          6           0       -1.429657   -0.304768   -0.049786
      2          6           0       -0.450582   -1.280445   -0.037605
      3          6           0        0.966135   -1.028862   -0.028801
      4          6           0        1.402151    0.240247    0.031959
      5          6           0        0.507501    1.286676    0.030924
      6          6           0       -0.993948    1.091110    0.054157
      7          1           0       -2.599777   -0.460867   -0.071236
      8          1           0       -1.475983    1.800223   -0.010871
      9          1           0        0.776649    2.311143   -0.100937
     10          1           0        2.532744    0.435095   -0.239649
     11          1           0        1.591594   -1.818518    0.177595
     12          1           0       -0.834830   -2.290825    0.240013
 ---------------------------------------------------------------------

 SCF Done:  E(RB3LYP) =  -232.158369400     A.U. after   13 cycles

 Excitation energies and oscillator strengths:

 Excited State   1:      Singlet-A      5.1419 eV  241.13 nm  f=0.0039  <S**2>=0.000
      20 -> 22         0.47615
      20 -> 23         0.10333
      21 -> 22        -0.20509
      21 -> 23         0.46902
 This state for optimization and/or second-order correction.
 Total Energy, E(TD-HF/TD-DFT) =  -231.969409151
 Copying the excited state density for this state as the 1-particle RhoCI density.

 The electronic state is 1-A.
 Alpha  occ. eigenvalues --  -10.20620 -10.19439 -10.19371 -10.19216 -10.18461
 Alpha  occ. eigenvalues --  -10.18442  -0.84102  -0.74780  -0.73305  -0.62328
 Alpha  occ. eigenvalues --   -0.58484  -0.51184  -0.48167  -0.43874  -0.41445
 Alpha  occ. eigenvalues --   -0.40476  -0.36131  -0.35038  -0.31614  -0.25373
 Alpha  occ. eigenvalues --   -0.23438
 Alpha virt. eigenvalues --   -0.01932   0.00183   0.09125   0.11451   0.14340
 Alpha virt. eigenvalues --    0.15657   0.16889   0.18575   0.20656   0.27348
 Alpha virt. eigenvalues --    0.28295   0.30345   0.32940   0.47088   0.49906

 Mulliken charges:
               1
     1  C   -0.092112
     2  C   -0.097015
     3  C   -0.073823
     4  C   -0.077242
     5  C   -0.106327
     6  C   -0.011589
     7  H    0.087875
     8  H    0.029962
     9  H    0.085424
    10  H    0.079569
    11  H    0.090954
    12  H    0.084322
 Sum of Mulliken charges =  -0.00000

 Dipole moment (field-independent basis, Debye):
    X=             -0.1021    Y=              0.1316    Z=              0.0073  Tot=              0.1667
 Quadrupole moment (field-independent basis, Debye-Ang):
   XX=            -31.5277   YY=            -31.7831   ZZ=            -38.4678
   XY=             -0.5679   XZ=             -0.3001   YZ=             -1.0200

 Normal termination of Gaussian 16 at Fri Nov 10 22:41:27 2023.
