 Gaussian 16, Revision B.01,
 Gaussian 16:  EM64L-G16RevB.01 20-Dec-2017

 ---------------------------------
 # TD=(NStates=1) B3LYP/6-31G(d,p)
 ---------------------------------

 -------
 EMISPCT
 -------
 Symbolic Z-matrix:
 Charge =  0 Multiplicity = 1

                         Standard orientation:
 ---------------------------------------------------------------------
 Center     Atomic      Atomic             Coordinates (Angstroms)
 Number     Number       Type             X           Y           Z
 ---------------------------------------------------------------------
      1          6           0       -0.162923    1.334111   -0.075611
      2          6           0        1.106090    0.879721    0.101174
      3          6           0        1.372004   -0.534912   -0.074862
      4          6           0        0.144636   -1.407949   -0.043112
      5          6           0       -1.112674   -0.803937    0.079378
      6          6           0       -1.280568    0.516328   -0.054091
      7          1           0       -0.476829    2.472575    0.121899
      8          1           0       -2.374051    0.893613   -0.210131
      9          1           0       -1.938984   -1.494239    0.306173
     10          1           0        0.342983   -2.389872    0.084359
     11          1           0        2.157543   -0.947471   -0.161369
     12          1           0        1.889946    1.565223    0.261809
 ---------------------------------------------------------------------

 SCF Done:  E(RB3LYP) =  -232.175325681     A.U. after   13 cycles

 Excitation energies and oscillator strengths:

 Excited State   1:      Singlet-A      5.2646 eV  235.51 nm  f=0.0018  <S**2>=0.000
      20 -> 22         0.51815
      21 -> 22        -0.13981
      21 -> 23         0.45343
 This state for optimization and/or second-order correction.
 Total Energy, E(TD-HF/TD-DFT) =  -231.981855852
 Copying the excited state density for this state as the 1-particle RhoCI density.

 The electronic state is 1-A.
 Alpha  occ. eigenvalues --  -10.19309 -10.19034 -10.18984 -10.18781 -10.18538
 Alpha  occ. eigenvalues --  -10.18331  -0.84731  -0.74719  -0.73700  -0.61500
 Alpha  occ. eigenvalues --   -0.59545  -0.51895  -0.47280  -0.44186  -0.42515
 Alpha  occ. eigenvalues --   -0.40106  -0.37017  -0.33690  -0.32293  -0.25021
 Alpha  occ. eigenvalues --   -0.23815
 Alpha virt. eigenvalues --   -0.01419   0.00582   0.08151   0.13760   0.14520
 Alpha virt. eigenvalues --    0.15965   0.17510   0.18111   0.20414   0.27592
 Alpha virt. eigenvalues --    0.29868   0.30822   0.33603   0.46556   0.50632

 Mulliken charges:
               1
     1  C   -0.087263
     2  C   -0.081161
     3  C   -0.046196
     4  C   -0.099006
     5  C   -0.067240
     6  C   -0.080074
     7  H    0.073305
     8  H    0.086870
     9  H    0.081189
    10  H    0.083977
    11  H    0.047539
    12  H    0.088059
 Sum of Mulliken charges =  -0.00000

 Dipole moment (field-independent basis, Debye):
    X=              0.0924    Y=             -0.2114    Z=              0.2496  Tot=              0.3399
 Quadrupole moment (field-independent basis, Debye-Ang):
   XX=            -31.3228   YY=            -31.9754   ZZ=            -38.2796
   XY=             -0.3577   XZ=              0.0197   YZ=              0.0603

 Normal termination of Gaussian 16 at Fri Nov 10 21:51:48 2023.
