 Gaussian 16, Revision B.01,
 Gaussian 16:  EM64L-G16RevB.01 20-Dec-2017

 ---------------------------------
 # TD=(NStates=1) B3LYP/6-31G(d,p)
 ---------------------------------

 -------
 EMISPCT
 -------
 Symbolic Z-matrix:
 Charge =  0 Multiplicity = 1

                         Standard orientation:
 ---------------------------------------------------------------------
 Center     Atomic      Atomic             Coordinates (Angstroms)
 Number     Number       Type             X           Y           Z
 ---------------------------------------------------------------------
      1          6           0       -0.401398   -1.370511   -0.003456
      2          6           0        0.996417   -1.032955   -0.070039
      3          6           0        1.412773    0.314405    0.069477
      4          6           0        0.407470    1.347484   -0.047975
      5          6           0       -0.973132    1.029041    0.006234
      6          6           0       -1.427936   -0.389839    0.027853
      7          1           0       -0.714565   -2.392413    0.149788
      8          1           0       -2.498903   -0.456721   -0.103268
      9          1           0       -1.744276    2.019461   -0.008649
     10          1           0        0.611340    2.406766    0.065216
     11          1           0        2.471339    0.744593    0.000039
     12          1           0        1.789902   -1.707428    0.004309
 ---------------------------------------------------------------------

 SCF Done:  E(RB3LYP) =  -232.211966709     A.U. after   13 cycles

 Excitation energies and oscillator strengths:

 Excited State   1:      Singlet-A      5.0999 eV  243.11 nm  f=0.0013  <S**2>=0.000
      20 -> 22         0.39459
      20 -> 23         0.29820
      21 -> 22        -0.35276
      21 -> 23         0.36132
 This state for optimization and/or second-order correction.
 Total Energy, E(TD-HF/TD-DFT) =  -232.024548550
 Copying the excited state density for this state as the 1-particle RhoCI density.

 The electronic state is 1-A.
 Alpha  occ. eigenvalues --  -10.21148 -10.20448 -10.20419 -10.20351 -10.19735
 Alpha  occ. eigenvalues --  -10.19275  -0.83018  -0.73388  -0.72948  -0.59608
 Alpha  occ. eigenvalues --   -0.58948  -0.50778  -0.45464  -0.43496  -0.41454
 Alpha  occ. eigenvalues --   -0.40490  -0.35410  -0.33529  -0.32685  -0.24504
 Alpha  occ. eigenvalues --   -0.24223
 Alpha virt. eigenvalues --   -0.01463  -0.00637   0.07619   0.12150   0.12829
 Alpha virt. eigenvalues --    0.14542   0.16397   0.17308   0.17942   0.26475
 Alpha virt. eigenvalues --    0.28328   0.29492   0.30656   0.47206   0.47621

 Mulliken charges:
               1
     1  C   -0.099455
     2  C   -0.085266
     3  C   -0.094994
     4  C   -0.077696
     5  C   -0.095318
     6  C   -0.089005
     7  H    0.094708
     8  H    0.103105
     9  H    0.071191
    10  H    0.086535
    11  H    0.092497
    12  H    0.093698
 Sum of Mulliken charges =  -0.00000

 Dipole moment (field-independent basis, Debye):
    X=              0.0379    Y=              0.0131    Z=              0.0645  Tot=              0.0759
 Quadrupole moment (field-independent basis, Debye-Ang):
   XX=            -31.3376   YY=            -31.7534   ZZ=            -39.1503
   XY=              0.0483   XZ=              0.1903   YZ=             -0.1569

 Normal termination of Gaussian 16 at Fri Nov 10 21:03:44 2023.
