 Gaussian 16, Revision B.01,
 Gaussian 16:  EM64L-G16RevB.01 20-Dec-2017

 ---------------------------------
 # TD=(NStates=1) B3LYP/6-31G(d,p)
 ---------------------------------

 -------
 EMISPCT
 -------
 Symbolic Z-matrix:
 Charge =  0 Multiplicity = 1

                         Standard orientation:
 ---------------------------------------------------------------------
 Center     Atomic      Atomic             Coordinates (Angstroms)
 Number     Number       Type             X           Y           Z
 ---------------------------------------------------------------------
      1          6           0       -1.083352    0.896800   -0.145745
      2          6           0        0.200029    1.361565    0.037066
      3          6           0        1.363153    0.476596    0.082026
      4          6           0        1.103575   -0.867269   -0.070517
      5          6           0       -0.234943   -1.380493   -0.036138
      6          6           0       -1.311333   -0.552290   -0.027187
      7          1           0       -1.831775    1.732351   -0.038054
      8          1           0       -2.522598   -0.773190    0.552480
      9          1           0       -0.545166   -2.525583    0.276337
     10          1           0        2.096215   -1.461018   -0.086865
     11          1           0        2.331282    0.866872    0.063151
     12          1           0        0.249275    2.551119    0.195932
 ---------------------------------------------------------------------

 SCF Done:  E(RB3LYP) =  -232.170074772     A.U. after   13 cycles

 Excitation energies and oscillator strengths:

 Excited State   1:      Singlet-A      5.2006 eV  238.40 nm  f=0.0026  <S**2>=0.000
      20 -> 22         0.52909
      20 -> 23        -0.10178
      21 -> 22         0.15411
      21 -> 23         0.43047
 This state for optimization and/or second-order correction.
 Total Energy, E(TD-HF/TD-DFT) =  -231.978955654
 Copying the excited state density for this state as the 1-particle RhoCI density.

 The electronic state is 1-A.
 Alpha  occ. eigenvalues --  -10.21996 -10.20949 -10.20637 -10.20389 -10.19841
 Alpha  occ. eigenvalues --  -10.19442  -0.84442  -0.73995  -0.73561  -0.59264
 Alpha  occ. eigenvalues --   -0.58055  -0.50499  -0.44119  -0.43457  -0.41152
 Alpha  occ. eigenvalues --   -0.39916  -0.36015  -0.33250  -0.31908  -0.24896
 Alpha  occ. eigenvalues --   -0.24680
 Alpha virt. eigenvalues --   -0.01739  -0.00309   0.04334   0.09787   0.10838
 Alpha virt. eigenvalues --    0.12684   0.15671   0.17298   0.18164   0.27031
 Alpha virt. eigenvalues --    0.28591   0.30833   0.32270   0.46487   0.48358

 Mulliken charges:
               1
     1  C   -0.085401
     2  C   -0.087452
     3  C   -0.071715
     4  C   -0.092986
     5  C   -0.094135
     6  C   -0.078025
     7  H    0.090877
     8  H    0.071261
     9  H    0.086935
    10  H    0.089075
    11  H    0.096112
    12  H    0.075452
 Sum of Mulliken charges =  -0.00000

 Dipole moment (field-independent basis, Debye):
    X=              0.2600    Y=              0.2922    Z=              0.5027  Tot=              0.6370
 Quadrupole moment (field-independent basis, Debye-Ang):
   XX=            -31.8153   YY=            -32.7988   ZZ=            -38.9002
   XY=             -0.3750   XZ=             -1.0559   YZ=             -0.2914

 Normal termination of Gaussian 16 at Fri Nov 10 22:07:20 2023.
