 Gaussian 16, Revision B.01,
 Gaussian 16:  EM64L-G16RevB.01 20-Dec-2017

 ---------------------------------
 # TD=(NStates=1) B3LYP/6-31G(d,p)
 ---------------------------------

 -------
 EMISPCT
 -------
 Symbolic Z-matrix:
 Charge =  0 Multiplicity = 1

                         Standard orientation:
 ---------------------------------------------------------------------
 Center     Atomic      Atomic             Coordinates (Angstroms)
 Number     Number       Type             X           Y           Z
 ---------------------------------------------------------------------
      1          6           0        0.009273    1.410620   -0.104800
      2          6           0       -1.275138    0.734539   -0.012916
      3          6           0       -1.302359   -0.769907    0.110079
      4          6           0        0.008040   -1.370515   -0.030708
      5          6           0        1.280760   -0.736976   -0.077897
      6          6           0        1.256658    0.742680    0.119834
      7          1           0       -0.001753    2.567959    0.112844
      8          1           0        2.214759    1.101308    0.077305
      9          1           0        2.238430   -1.111398   -0.027338
     10          1           0        0.073839   -2.566363   -0.026784
     11          1           0       -2.110006   -1.339148   -0.019030
     12          1           0       -2.278679    1.284998   -0.138559
 ---------------------------------------------------------------------

 SCF Done:  E(RB3LYP) =  -232.184804309     A.U. after   12 cycles

 Excitation energies and oscillator strengths:

 Excited State   1:      Singlet-A      4.8531 eV  255.47 nm  f=0.0038  <S**2>=0.000
      20 -> 22         0.50241
      20 -> 23         0.14066
      21 -> 22         0.22164
      21 -> 23        -0.42237
 This state for optimization and/or second-order correction.
 Total Energy, E(TD-HF/TD-DFT) =  -232.006455199
 Copying the excited state density for this state as the 1-particle RhoCI density.

 The electronic state is 1-A.
 Alpha  occ. eigenvalues --  -10.21856 -10.21060 -10.21017 -10.20225 -10.19804
 Alpha  occ. eigenvalues --  -10.19627  -0.82303  -0.73360  -0.72452  -0.60561
 Alpha  occ. eigenvalues --   -0.58597  -0.50300  -0.47528  -0.43926  -0.40542
 Alpha  occ. eigenvalues --   -0.39222  -0.36471  -0.34502  -0.30713  -0.24576
 Alpha  occ. eigenvalues --   -0.23847
 Alpha virt. eigenvalues --   -0.02788  -0.00795   0.08562   0.11401   0.13106
 Alpha virt. eigenvalues --    0.14387   0.14859   0.17574   0.19721   0.25281
 Alpha virt. eigenvalues --    0.26104   0.27519   0.31600   0.43969   0.46554

 Mulliken charges:
               1
     1  C   -0.093717
     2  C   -0.107426
     3  C   -0.071173
     4  C   -0.090026
     5  C   -0.084731
     6  C   -0.083525
     7  H    0.081185
     8  H    0.093144
     9  H    0.095791
    10  H    0.066783
    11  H    0.096370
    12  H    0.097327
 Sum of Mulliken charges =  -0.00000

 Dipole moment (field-independent basis, Debye):
    X=              0.1069    Y=             -0.0762    Z=             -0.0060  Tot=              0.1315
 Quadrupole moment (field-independent basis, Debye-Ang):
   XX=            -30.1214   YY=            -32.9578   ZZ=            -39.2435
   XY=              0.0286   XZ=              0.4062   YZ=              0.2992

 Normal termination of Gaussian 16 at Fri Nov 10 19:54:32 2023.
