 Gaussian 16, Revision B.01,
 Gaussian 16:  EM64L-G16RevB.01 20-Dec-2017

 ---------------------------------
 # TD=(NStates=1) B3LYP/6-31G(d,p)
 ---------------------------------

 -------
 EMISPCT
 -------
 Symbolic Z-matrix:
 Charge =  0 Multiplicity = 1

                         Standard orientation:
 ---------------------------------------------------------------------
 Center     Atomic      Atomic             Coordinates (Angstroms)
 Number     Number       Type             X           Y           Z
 ---------------------------------------------------------------------
      1          6           0        1.417331   -0.466094    0.185639
      2          6           0        0.249416   -1.360452   -0.160263
      3          6           0       -1.071198   -0.913930    0.050678
      4          6           0       -1.401256    0.429813    0.025316
      5          6           0       -0.297179    1.386727   -0.033511
      6          6           0        1.073025    0.902995   -0.072689
      7          1           0        2.185265   -0.837643    0.261842
      8          1           0        1.786496    1.680173   -0.202154
      9          1           0       -0.192352    2.513154   -0.094006
     10          1           0       -2.313915    0.858634    0.352571
     11          1           0       -1.874717   -1.665803   -0.148126
     12          1           0        0.588386   -2.422876   -0.141151
 ---------------------------------------------------------------------

 SCF Done:  E(RB3LYP) =  -232.143801794     A.U. after   13 cycles

 Excitation energies and oscillator strengths:

 Excited State   1:      Singlet-A      4.8140 eV  257.55 nm  f=0.0085  <S**2>=0.000
      20 -> 22         0.42383
      20 -> 23         0.20292
      21 -> 22         0.38875
      21 -> 23        -0.35661
 This state for optimization and/or second-order correction.
 Total Energy, E(TD-HF/TD-DFT) =  -231.966892045
 Copying the excited state density for this state as the 1-particle RhoCI density.

 The electronic state is 1-A.
 Alpha  occ. eigenvalues --  -10.20180 -10.20172 -10.19794 -10.19655 -10.19499
 Alpha  occ. eigenvalues --  -10.18413  -0.83207  -0.74560  -0.72693  -0.62050
 Alpha  occ. eigenvalues --   -0.58237  -0.51933  -0.48457  -0.43152  -0.41900
 Alpha  occ. eigenvalues --   -0.39819  -0.35927  -0.34027  -0.31778  -0.24590
 Alpha  occ. eigenvalues --   -0.23347
 Alpha virt. eigenvalues --   -0.02617  -0.00356   0.09242   0.11541   0.13258
 Alpha virt. eigenvalues --    0.15873   0.16839   0.18207   0.21030   0.25726
 Alpha virt. eigenvalues --    0.27878   0.29274   0.32179   0.42728   0.46606

 Mulliken charges:
               1
     1  C   -0.008362
     2  C   -0.116077
     3  C   -0.086254
     4  C   -0.090629
     5  C   -0.094974
     6  C   -0.091398
     7  H    0.038970
     8  H    0.080799
     9  H    0.092981
    10  H    0.099425
    11  H    0.090249
    12  H    0.085271
 Sum of Mulliken charges =  -0.00000

 Dipole moment (field-independent basis, Debye):
    X=              0.2953    Y=              0.0500    Z=              0.0859  Tot=              0.3116
 Quadrupole moment (field-independent basis, Debye-Ang):
   XX=            -31.7166   YY=            -31.5003   ZZ=            -38.5757
   XY=             -0.1940   XZ=             -0.2185   YZ=              0.0773

 Normal termination of Gaussian 16 at Fri Nov 10 21:16:02 2023.
