 Gaussian 16, Revision B.01,
 Gaussian 16:  EM64L-G16RevB.01 20-Dec-2017

 ---------------------------------
 # TD=(NStates=1) B3LYP/6-31G(d,p)
 ---------------------------------

 -------
 EMISPCT
 -------
 Symbolic Z-matrix:
 Charge =  0 Multiplicity = 1

                         Standard orientation:
 ---------------------------------------------------------------------
 Center     Atomic      Atomic             Coordinates (Angstroms)
 Number     Number       Type             X           Y           Z
 ---------------------------------------------------------------------
      1          6           0        1.242423   -0.658100   -0.083924
      2          6           0        1.244670    0.765771    0.037995
      3          6           0       -0.028868    1.370282    0.093918
      4          6           0       -1.279441    0.661295   -0.093540
      5          6           0       -1.233983   -0.770711    0.027190
      6          6           0        0.010802   -1.363372   -0.048848
      7          1           0        2.244994   -1.104067    0.256615
      8          1           0        0.323623   -2.387862    0.233106
      9          1           0       -2.164761   -1.349569    0.165255
     10          1           0       -2.337517    1.315428   -0.097242
     11          1           0       -0.086764    2.403476    0.136213
     12          1           0        2.286797    1.091602   -0.290691
 ---------------------------------------------------------------------

 SCF Done:  E(RB3LYP) =  -232.191440153     A.U. after   13 cycles

 Excitation energies and oscillator strengths:

 Excited State   1:      Singlet-A      5.0182 eV  247.07 nm  f=0.0007  <S**2>=0.000
      20 -> 22         0.48138
      20 -> 23        -0.11743
      21 -> 22        -0.15434
      21 -> 23        -0.47983
 This state for optimization and/or second-order correction.
 Total Energy, E(TD-HF/TD-DFT) =  -232.007023562
 Copying the excited state density for this state as the 1-particle RhoCI density.

 The electronic state is 1-A.
 Alpha  occ. eigenvalues --  -10.21796 -10.20390 -10.19753 -10.19604 -10.19346
 Alpha  occ. eigenvalues --  -10.19191  -0.83940  -0.74065  -0.73042  -0.60056
 Alpha  occ. eigenvalues --   -0.58493  -0.50688  -0.44979  -0.44494  -0.40856
 Alpha  occ. eigenvalues --   -0.39899  -0.36053  -0.34462  -0.31172  -0.24840
 Alpha  occ. eigenvalues --   -0.23899
 Alpha virt. eigenvalues --   -0.01890  -0.00778   0.06999   0.10827   0.12660
 Alpha virt. eigenvalues --    0.14340   0.16205   0.17471   0.18908   0.26545
 Alpha virt. eigenvalues --    0.28775   0.30135   0.32435   0.47085   0.47651

 Mulliken charges:
               1
     1  C   -0.117469
     2  C   -0.085759
     3  C   -0.093273
     4  C   -0.091252
     5  C   -0.090449
     6  C   -0.070094
     7  H    0.088840
     8  H    0.086623
     9  H    0.097688
    10  H    0.084904
    11  H    0.086863
    12  H    0.103377
 Sum of Mulliken charges =  -0.00000

 Dipole moment (field-independent basis, Debye):
    X=             -0.0368    Y=              0.0530    Z=              0.2517  Tot=              0.2599
 Quadrupole moment (field-independent basis, Debye-Ang):
   XX=            -31.0286   YY=            -33.0102   ZZ=            -38.7801
   XY=             -0.4210   XZ=             -0.1573   YZ=             -0.9443

 Normal termination of Gaussian 16 at Fri Nov 10 22:02:33 2023.
