 Gaussian 16, Revision B.01,
 Gaussian 16:  EM64L-G16RevB.01 20-Dec-2017

 ---------------------------------
 # TD=(NStates=1) B3LYP/6-31G(d,p)
 ---------------------------------

 -------
 EMISPCT
 -------
 Symbolic Z-matrix:
 Charge =  0 Multiplicity = 1

                         Standard orientation:
 ---------------------------------------------------------------------
 Center     Atomic      Atomic             Coordinates (Angstroms)
 Number     Number       Type             X           Y           Z
 ---------------------------------------------------------------------
      1          6           0        1.251270    0.741693   -0.073467
      2          6           0        1.259543   -0.650268    0.013900
      3          6           0        0.055907   -1.404701    0.038467
      4          6           0       -1.210069   -0.811745   -0.033077
      5          6           0       -1.320147    0.662600    0.036727
      6          6           0       -0.070952    1.436844    0.023487
      7          1           0        2.175955    1.326730   -0.126419
      8          1           0       -0.131165    2.509558   -0.010116
      9          1           0       -2.241958    1.258403    0.100700
     10          1           0       -2.092024   -1.401062   -0.146379
     11          1           0        0.139448   -2.461983   -0.155005
     12          1           0        2.356426   -1.078183    0.300999
 ---------------------------------------------------------------------

 SCF Done:  E(RB3LYP) =  -232.221960766     A.U. after   13 cycles

 Excitation energies and oscillator strengths:

 Excited State   1:      Singlet-A      5.0389 eV  246.05 nm  f=0.0002  <S**2>=0.000
      20 -> 22        -0.46426
      20 -> 23        -0.14694
      21 -> 22        -0.16728
      21 -> 23         0.48429
 This state for optimization and/or second-order correction.
 Total Energy, E(TD-HF/TD-DFT) =  -232.036784253
 Copying the excited state density for this state as the 1-particle RhoCI density.

 The electronic state is 1-A.
 Alpha  occ. eigenvalues --  -10.20728 -10.20406 -10.20401 -10.20055 -10.20050
 Alpha  occ. eigenvalues --  -10.19381  -0.82748  -0.73268  -0.72653  -0.59712
 Alpha  occ. eigenvalues --   -0.58708  -0.50497  -0.46553  -0.42874  -0.41582
 Alpha  occ. eigenvalues --   -0.40563  -0.35502  -0.34178  -0.32443  -0.24354
 Alpha  occ. eigenvalues --   -0.23899
 Alpha virt. eigenvalues --   -0.01152  -0.00963   0.08314   0.12351   0.14036
 Alpha virt. eigenvalues --    0.14820   0.16335   0.17312   0.17701   0.27039
 Alpha virt. eigenvalues --    0.27595   0.29122   0.30480   0.47197   0.48120

 Mulliken charges:
               1
     1  C   -0.082446
     2  C   -0.088629
     3  C   -0.089125
     4  C   -0.087948
     5  C   -0.098347
     6  C   -0.099479
     7  H    0.093273
     8  H    0.089793
     9  H    0.095615
    10  H    0.093601
    11  H    0.092217
    12  H    0.081476
 Sum of Mulliken charges =  -0.00000

 Dipole moment (field-independent basis, Debye):
    X=             -0.0692    Y=              0.1520    Z=             -0.0485  Tot=              0.1739
 Quadrupole moment (field-independent basis, Debye-Ang):
   XX=            -31.2299   YY=            -31.6081   ZZ=            -39.0617
   XY=              0.2384   XZ=              0.3880   YZ=              0.2220

 Normal termination of Gaussian 16 at Fri Nov 10 22:51:18 2023.
