 Gaussian 16, Revision B.01,
 Gaussian 16:  EM64L-G16RevB.01 20-Dec-2017

 ---------------------------------
 # TD=(NStates=1) B3LYP/6-31G(d,p)
 ---------------------------------

 -------
 EMISPCT
 -------
 Symbolic Z-matrix:
 Charge =  0 Multiplicity = 1

                         Standard orientation:
 ---------------------------------------------------------------------
 Center     Atomic      Atomic             Coordinates (Angstroms)
 Number     Number       Type             X           Y           Z
 ---------------------------------------------------------------------
      1          6           0        1.351117   -0.394484    0.147521
      2          6           0        0.305456   -1.359052   -0.154163
      3          6           0       -0.986253   -0.942131    0.024268
      4          6           0       -1.405328    0.345670    0.009776
      5          6           0       -0.289967    1.372671   -0.073245
      6          6           0        1.013142    0.969390    0.001603
      7          1           0        2.585975   -0.660422    0.097392
      8          1           0        1.792626    1.632237   -0.039538
      9          1           0       -0.549642    2.501825   -0.040376
     10          1           0       -2.524962    0.666067    0.092389
     11          1           0       -1.799506   -1.555653    0.373000
     12          1           0        0.566510   -2.536443   -0.217428
 ---------------------------------------------------------------------

 SCF Done:  E(RB3LYP) =  -232.186918037     A.U. after   13 cycles

 Excitation energies and oscillator strengths:

 Excited State   1:      Singlet-A      5.0746 eV  244.33 nm  f=0.0056  <S**2>=0.000
      20 -> 22         0.56484
      21 -> 22         0.11317
      21 -> 23        -0.40477
 This state for optimization and/or second-order correction.
 Total Energy, E(TD-HF/TD-DFT) =  -232.000431554
 Copying the excited state density for this state as the 1-particle RhoCI density.

 The electronic state is 1-A.
 Alpha  occ. eigenvalues --  -10.21428 -10.20850 -10.20391 -10.20292 -10.18471
 Alpha  occ. eigenvalues --  -10.18451  -0.84556  -0.75269  -0.72078  -0.59868
 Alpha  occ. eigenvalues --   -0.58225  -0.50373  -0.45334  -0.43464  -0.41737
 Alpha  occ. eigenvalues --   -0.39619  -0.35900  -0.34344  -0.32408  -0.24961
 Alpha  occ. eigenvalues --   -0.23640
 Alpha virt. eigenvalues --   -0.02253   0.00573   0.06526   0.11099   0.12605
 Alpha virt. eigenvalues --    0.13637   0.14937   0.18027   0.18680   0.25835
 Alpha virt. eigenvalues --    0.29542   0.30753   0.33387   0.46306   0.48746

 Mulliken charges:
               1
     1  C   -0.094931
     2  C   -0.101506
     3  C   -0.059958
     4  C   -0.099873
     5  C   -0.096670
     6  C   -0.059751
     7  H    0.072144
     8  H    0.090329
     9  H    0.080890
    10  H    0.095390
    11  H    0.091100
    12  H    0.082836
 Sum of Mulliken charges =  -0.00000

 Dipole moment (field-independent basis, Debye):
    X=             -0.0954    Y=              0.1172    Z=              0.1605  Tot=              0.2204
 Quadrupole moment (field-independent basis, Debye-Ang):
   XX=            -31.3143   YY=            -32.4978   ZZ=            -38.8587
   XY=              0.2062   XZ=             -0.7275   YZ=             -0.1340

 Normal termination of Gaussian 16 at Fri Nov 10 20:01:15 2023.
