 Gaussian 16, Revision B.01,
 Gaussian 16:  EM64L-G16RevB.01 20-Dec-2017

 ---------------------------------
 # TD=(NStates=1) B3LYP/6-31G(d,p)
 ---------------------------------

 -------
 EMISPCT
 -------
 Symbolic Z-matrix:
 Charge =  0 Multiplicity = 1

                         Standard orientation:
 ---------------------------------------------------------------------
 Center     Atomic      Atomic             Coordinates (Angstroms)
 Number     Number       Type             X           Y           Z
 ---------------------------------------------------------------------
      1          6           0       -0.427100    1.360158   -0.146079
      2          6           0        1.047234    1.017027    0.054743
      3          6           0        1.392002   -0.360380   -0.027446
      4          6           0        0.396319   -1.354550    0.027827
      5          6           0       -0.943615   -0.958961   -0.037558
      6          6           0       -1.414981    0.351831    0.031724
      7          1           0       -0.637016    2.429514    0.114815
      8          1           0       -2.629564    0.298934    0.231174
      9          1           0       -1.809145   -1.733784    0.028149
     10          1           0        0.610336   -2.445157    0.061867
     11          1           0        2.363079   -0.796419   -0.116697
     12          1           0        1.803158    1.916159    0.261422
 ---------------------------------------------------------------------

 SCF Done:  E(RB3LYP) =  -232.193488311     A.U. after   13 cycles

 Excitation energies and oscillator strengths:

 Excited State   1:      Singlet-A      5.0136 eV  247.30 nm  f=0.0040  <S**2>=0.000
      20 -> 22         0.42128
      20 -> 23         0.21854
      21 -> 22         0.35238
      21 -> 23        -0.38701
 This state for optimization and/or second-order correction.
 Total Energy, E(TD-HF/TD-DFT) =  -232.009243576
 Copying the excited state density for this state as the 1-particle RhoCI density.

 The electronic state is 1-A.
 Alpha  occ. eigenvalues --  -10.21975 -10.21043 -10.20998 -10.19669 -10.19551
 Alpha  occ. eigenvalues --  -10.19265  -0.83676  -0.74101  -0.72311  -0.59528
 Alpha  occ. eigenvalues --   -0.58489  -0.50409  -0.44699  -0.43106  -0.41419
 Alpha  occ. eigenvalues --   -0.40002  -0.35257  -0.33543  -0.32968  -0.24828
 Alpha  occ. eigenvalues --   -0.23769
 Alpha virt. eigenvalues --   -0.01872  -0.00490   0.05853   0.10857   0.12623
 Alpha virt. eigenvalues --    0.13332   0.16231   0.16733   0.18496   0.25685
 Alpha virt. eigenvalues --    0.28765   0.31013   0.31927   0.45510   0.46042

 Mulliken charges:
               1
     1  C   -0.128929
     2  C   -0.107614
     3  C   -0.077530
     4  C   -0.077410
     5  C   -0.076780
     6  C   -0.065218
     7  H    0.088312
     8  H    0.094164
     9  H    0.068107
    10  H    0.094255
    11  H    0.089363
    12  H    0.099281
 Sum of Mulliken charges =  -0.00000

 Dipole moment (field-independent basis, Debye):
    X=              0.0880    Y=             -0.2393    Z=              0.3559  Tot=              0.4378
 Quadrupole moment (field-independent basis, Debye-Ang):
   XX=            -31.6690   YY=            -32.0112   ZZ=            -39.1026
   XY=              0.3629   XZ=             -0.3703   YZ=              0.6535

 Normal termination of Gaussian 16 at Fri Nov 10 22:55:05 2023.
