 Gaussian 16, Revision B.01,
 Gaussian 16:  EM64L-G16RevB.01 20-Dec-2017

 ---------------------------------
 # TD=(NStates=1) B3LYP/6-31G(d,p)
 ---------------------------------

 -------
 EMISPCT
 -------
 Symbolic Z-matrix:
 Charge =  0 Multiplicity = 1

                         Standard orientation:
 ---------------------------------------------------------------------
 Center     Atomic      Atomic             Coordinates (Angstroms)
 Number     Number       Type             X           Y           Z
 ---------------------------------------------------------------------
      1          6           0        1.228557   -0.786455   -0.008118
      2          6           0       -0.071087   -1.418165    0.042718
      3          6           0       -1.320842   -0.682107   -0.017236
      4          6           0       -1.201655    0.752097   -0.055444
      5          6           0        0.070902    1.441141   -0.073417
      6          6           0        1.274325    0.612151    0.036615
      7          1           0        2.227817   -1.288096   -0.254731
      8          1           0        2.178719    1.282466    0.142889
      9          1           0        0.029850    2.536455    0.262328
     10          1           0       -1.997565    1.332609    0.105582
     11          1           0       -2.229149   -1.061910    0.107651
     12          1           0       -0.090874   -2.313502    0.085569
 ---------------------------------------------------------------------

 SCF Done:  E(RB3LYP) =  -232.173738807     A.U. after   13 cycles

 Excitation energies and oscillator strengths:

 Excited State   1:      Singlet-A      4.9651 eV  249.71 nm  f=0.0005  <S**2>=0.000
      20 -> 22         0.51894
      21 -> 23         0.47094
 This state for optimization and/or second-order correction.
 Total Energy, E(TD-HF/TD-DFT) =  -231.991274169
 Copying the excited state density for this state as the 1-particle RhoCI density.

 The electronic state is 1-A.
 Alpha  occ. eigenvalues --  -10.20322 -10.20033 -10.19999 -10.19170 -10.18734
 Alpha  occ. eigenvalues --  -10.18553  -0.82893  -0.73795  -0.73360  -0.61083
 Alpha  occ. eigenvalues --   -0.59505  -0.51674  -0.47443  -0.42795  -0.42012
 Alpha  occ. eigenvalues --   -0.41384  -0.35179  -0.33996  -0.33079  -0.24224
 Alpha  occ. eigenvalues --   -0.23799
 Alpha virt. eigenvalues --   -0.01651  -0.00723   0.09637   0.11897   0.14570
 Alpha virt. eigenvalues --    0.15294   0.16918   0.18915   0.20566   0.27971
 Alpha virt. eigenvalues --    0.28221   0.29787   0.30362   0.46576   0.47974

 Mulliken charges:
               1
     1  C   -0.095369
     2  C   -0.056229
     3  C   -0.066539
     4  C   -0.084344
     5  C   -0.101641
     6  C   -0.090484
     7  H    0.098279
     8  H    0.085979
     9  H    0.089540
    10  H    0.080287
    11  H    0.083399
    12  H    0.057121
 Sum of Mulliken charges =  -0.00000

 Dipole moment (field-independent basis, Debye):
    X=             -0.1658    Y=             -0.0776    Z=              0.2953  Tot=              0.3474
 Quadrupole moment (field-independent basis, Debye-Ang):
   XX=            -31.2276   YY=            -31.5777   ZZ=            -38.6216
   XY=             -0.0506   XZ=             -0.6826   YZ=              0.8451

 Normal termination of Gaussian 16 at Fri Nov 10 21:50:12 2023.
