 Gaussian 16, Revision B.01,
 Gaussian 16:  EM64L-G16RevB.01 20-Dec-2017

 ---------------------------------
 # TD=(NStates=1) B3LYP/6-31G(d,p)
 ---------------------------------

 -------
 EMISPCT
 -------
 Symbolic Z-matrix:
 Charge =  0 Multiplicity = 1

                         Standard orientation:
 ---------------------------------------------------------------------
 Center     Atomic      Atomic             Coordinates (Angstroms)
 Number     Number       Type             X           Y           Z
 ---------------------------------------------------------------------
      1          6           0        1.011713    0.943805   -0.065995
      2          6           0       -0.323826    1.356710   -0.006110
      3          6           0       -1.417860    0.406157    0.010733
      4          6           0       -1.000177   -0.948281   -0.053999
      5          6           0        0.358063   -1.317318    0.025163
      6          6           0        1.324340   -0.384169    0.076652
      7          1           0        1.839375    1.636302   -0.142562
      8          1           0        2.480424   -0.806819    0.061675
      9          1           0        0.586209   -2.326983   -0.146942
     10          1           0       -1.650360   -1.854271    0.059920
     11          1           0       -2.614578    0.479235    0.055086
     12          1           0       -0.354589    2.531115    0.194159
 ---------------------------------------------------------------------

 SCF Done:  E(RB3LYP) =  -232.205369170     A.U. after   13 cycles

 Excitation energies and oscillator strengths:

 Excited State   1:      Singlet-A      5.3863 eV  230.18 nm  f=0.0016  <S**2>=0.000
      20 -> 22        -0.31139
      20 -> 23         0.33407
      21 -> 22         0.39868
      21 -> 23         0.36317
 This state for optimization and/or second-order correction.
 Total Energy, E(TD-HF/TD-DFT) =  -232.007425011
 Copying the excited state density for this state as the 1-particle RhoCI density.

 The electronic state is 1-A.
 Alpha  occ. eigenvalues --  -10.21480 -10.21095 -10.19372 -10.19338 -10.18925
 Alpha  occ. eigenvalues --  -10.17792  -0.85022  -0.74083  -0.73797  -0.59527
 Alpha  occ. eigenvalues --   -0.59189  -0.50935  -0.44505  -0.44091  -0.41049
 Alpha  occ. eigenvalues --   -0.40484  -0.36054  -0.34152  -0.32483  -0.25171
 Alpha  occ. eigenvalues --   -0.24311
 Alpha virt. eigenvalues --   -0.00354  -0.00205   0.06574   0.10624   0.12808
 Alpha virt. eigenvalues --    0.14026   0.15737   0.17937   0.19713   0.27680
 Alpha virt. eigenvalues --    0.29879   0.31444   0.32947   0.46610   0.49854

 Mulliken charges:
               1
     1  C   -0.075031
     2  C   -0.111302
     3  C   -0.096728
     4  C   -0.092346
     5  C   -0.069784
     6  C   -0.069678
     7  H    0.091829
     8  H    0.067180
     9  H    0.086183
    10  H    0.084826
    11  H    0.099656
    12  H    0.085196
 Sum of Mulliken charges =  -0.00000

 Dipole moment (field-independent basis, Debye):
    X=              0.0846    Y=             -0.1733    Z=              0.0460  Tot=              0.1982
 Quadrupole moment (field-independent basis, Debye-Ang):
   XX=            -31.8904   YY=            -31.9652   ZZ=            -38.8095
   XY=              0.7259   XZ=             -0.4602   YZ=              0.3955

 Normal termination of Gaussian 16 at Fri Nov 10 21:52:35 2023.
