 Gaussian 16, Revision B.01,
 Gaussian 16:  EM64L-G16RevB.01 20-Dec-2017

 ---------------------------------
 # TD=(NStates=1) B3LYP/6-31G(d,p)
 ---------------------------------

 -------
 EMISPCT
 -------
 Symbolic Z-matrix:
 Charge =  0 Multiplicity = 1

                         Standard orientation:
 ---------------------------------------------------------------------
 Center     Atomic      Atomic             Coordinates (Angstroms)
 Number     Number       Type             X           Y           Z
 ---------------------------------------------------------------------
      1          6           0       -0.073526    1.327468    0.022168
      2          6           0       -1.327882    0.584631   -0.034693
      3          6           0       -1.176559   -0.785520   -0.011108
      4          6           0        0.117946   -1.321898    0.003690
      5          6           0        1.298535   -0.607900   -0.027064
      6          6           0        1.196406    0.811031    0.029359
      7          1           0       -0.307704    2.382921    0.014232
      8          1           0        2.142375    1.447464   -0.041571
      9          1           0        2.350222   -1.159619   -0.146466
     10          1           0        0.233500   -2.339077    0.306401
     11          1           0       -2.121919   -1.293526   -0.125882
     12          1           0       -2.505990    0.914964    0.099176
 ---------------------------------------------------------------------

 SCF Done:  E(RB3LYP) =  -232.208454233     A.U. after   13 cycles

 Excitation energies and oscillator strengths:

 Excited State   1:      Singlet-A      5.3520 eV  231.66 nm  f=0.0038  <S**2>=0.000
      20 -> 22        -0.37046
      20 -> 23        -0.24727
      21 -> 22        -0.35440
      21 -> 23         0.41859
 This state for optimization and/or second-order correction.
 Total Energy, E(TD-HF/TD-DFT) =  -232.011773287
 Copying the excited state density for this state as the 1-particle RhoCI density.

 The electronic state is 1-A.
 Alpha  occ. eigenvalues --  -10.20388 -10.20213 -10.19981 -10.19358 -10.18656
 Alpha  occ. eigenvalues --  -10.18456  -0.84729  -0.74549  -0.73286  -0.59961
 Alpha  occ. eigenvalues --   -0.58558  -0.50971  -0.44996  -0.44796  -0.40809
 Alpha  occ. eigenvalues --   -0.39954  -0.36055  -0.34923  -0.31614  -0.25307
 Alpha  occ. eigenvalues --   -0.24004
 Alpha virt. eigenvalues --   -0.00621   0.00063   0.06544   0.10746   0.13633
 Alpha virt. eigenvalues --    0.15827   0.16768   0.17249   0.18392   0.27646
 Alpha virt. eigenvalues --    0.29936   0.30066   0.33633   0.46531   0.50237

 Mulliken charges:
               1
     1  C   -0.105718
     2  C   -0.093370
     3  C   -0.070888
     4  C   -0.084642
     5  C   -0.098486
     6  C   -0.073151
     7  H    0.083171
     8  H    0.093211
     9  H    0.089099
    10  H    0.084391
    11  H    0.087514
    12  H    0.088869
 Sum of Mulliken charges =  -0.00000

 Dipole moment (field-independent basis, Debye):
    X=             -0.0672    Y=             -0.0407    Z=              0.0694  Tot=              0.1048
 Quadrupole moment (field-independent basis, Debye-Ang):
   XX=            -30.3990   YY=            -33.1904   ZZ=            -38.7205
   XY=             -0.0400   XZ=             -0.2973   YZ=             -0.2880

 Normal termination of Gaussian 16 at Fri Nov 10 21:01:47 2023.
