 Gaussian 16, Revision B.01,
 Gaussian 16:  EM64L-G16RevB.01 20-Dec-2017

 ---------------------------------
 # TD=(NStates=1) B3LYP/6-31G(d,p)
 ---------------------------------

 -------
 EMISPCT
 -------
 Symbolic Z-matrix:
 Charge =  0 Multiplicity = 1

                         Standard orientation:
 ---------------------------------------------------------------------
 Center     Atomic      Atomic             Coordinates (Angstroms)
 Number     Number       Type             X           Y           Z
 ---------------------------------------------------------------------
      1          6           0       -0.386613    1.380792    0.053428
      2          6           0       -1.420994    0.351041   -0.027983
      3          6           0       -1.015853   -1.026781    0.016654
      4          6           0        0.367009   -1.296523   -0.107729
      5          6           0        1.430513   -0.395487   -0.014952
      6          6           0        1.013890    1.035665    0.006739
      7          1           0       -0.491724    2.347373   -0.076335
      8          1           0        1.732406    1.736448   -0.078545
      9          1           0        2.366015   -0.789170    0.253647
     10          1           0        0.624686   -2.458782    0.177576
     11          1           0       -1.707713   -1.787690    0.144688
     12          1           0       -2.451388    0.659574    0.022032
 ---------------------------------------------------------------------

 SCF Done:  E(RB3LYP) =  -232.199762906     A.U. after   13 cycles

 Excitation energies and oscillator strengths:

 Excited State   1:      Singlet-A      5.0028 eV  247.83 nm  f=0.0004  <S**2>=0.000
      20 -> 22         0.49722
      21 -> 22         0.11304
      21 -> 23        -0.48283
 This state for optimization and/or second-order correction.
 Total Energy, E(TD-HF/TD-DFT) =  -232.015913543
 Copying the excited state density for this state as the 1-particle RhoCI density.

 The electronic state is 1-A.
 Alpha  occ. eigenvalues --  -10.20273 -10.20078 -10.19581 -10.19497 -10.19420
 Alpha  occ. eigenvalues --  -10.19034  -0.82989  -0.73689  -0.73357  -0.60865
 Alpha  occ. eigenvalues --   -0.59121  -0.51741  -0.47445  -0.42913  -0.42328
 Alpha  occ. eigenvalues --   -0.40780  -0.35815  -0.34235  -0.32151  -0.24568
 Alpha  occ. eigenvalues --   -0.23754
 Alpha virt. eigenvalues --   -0.01804  -0.00630   0.08990   0.12601   0.14472
 Alpha virt. eigenvalues --    0.16051   0.16979   0.18534   0.19558   0.27248
 Alpha virt. eigenvalues --    0.28018   0.29163   0.31299   0.46485   0.46934

 Mulliken charges:
               1
     1  C   -0.067902
     2  C   -0.100240
     3  C   -0.069789
     4  C   -0.085555
     5  C   -0.084178
     6  C   -0.103478
     7  H    0.082675
     8  H    0.086883
     9  H    0.100405
    10  H    0.055616
    11  H    0.094627
    12  H    0.090936
 Sum of Mulliken charges =  -0.00000

 Dipole moment (field-independent basis, Debye):
    X=             -0.0539    Y=              0.1757    Z=              0.2581  Tot=              0.3168
 Quadrupole moment (field-independent basis, Debye-Ang):
   XX=            -31.1740   YY=            -31.8638   ZZ=            -38.7129
   XY=              0.4062   XZ=              0.2646   YZ=             -1.0082

 Normal termination of Gaussian 16 at Fri Nov 10 20:51:38 2023.
