 Gaussian 16, Revision B.01,
 Gaussian 16:  EM64L-G16RevB.01 20-Dec-2017

 ---------------------------------
 # TD=(NStates=1) B3LYP/6-31G(d,p)
 ---------------------------------

 -------
 EMISPCT
 -------
 Symbolic Z-matrix:
 Charge =  0 Multiplicity = 1

                         Standard orientation:
 ---------------------------------------------------------------------
 Center     Atomic      Atomic             Coordinates (Angstroms)
 Number     Number       Type             X           Y           Z
 ---------------------------------------------------------------------
      1          6           0        1.178419    0.779353    0.013888
      2          6           0       -0.089716    1.390913    0.042111
      3          6           0       -1.301397    0.595884   -0.079721
      4          6           0       -1.197781   -0.735198    0.065615
      5          6           0        0.095999   -1.372181   -0.048771
      6          6           0        1.324474   -0.692240   -0.029064
      7          1           0        1.990417    1.547490   -0.084973
      8          1           0        2.419911   -0.998803    0.071602
      9          1           0       -0.009094   -2.473650    0.156937
     10          1           0       -2.144530   -1.359391   -0.013532
     11          1           0       -2.217990    1.112566   -0.004390
     12          1           0       -0.098703    2.372601    0.090005
 ---------------------------------------------------------------------

 SCF Done:  E(RB3LYP) =  -232.212899795     A.U. after   13 cycles

 Excitation energies and oscillator strengths:

 Excited State   1:      Singlet-A      5.2446 eV  236.40 nm  f=0.0027  <S**2>=0.000
      20 -> 22         0.28542
      20 -> 23         0.35857
      21 -> 22         0.44688
      21 -> 23        -0.29984
 This state for optimization and/or second-order correction.
 Total Energy, E(TD-HF/TD-DFT) =  -232.020164166
 Copying the excited state density for this state as the 1-particle RhoCI density.

 The electronic state is 1-A.
 Alpha  occ. eigenvalues --  -10.20988 -10.20170 -10.19737 -10.19394 -10.18613
 Alpha  occ. eigenvalues --  -10.18125  -0.83799  -0.73955  -0.73385  -0.60342
 Alpha  occ. eigenvalues --   -0.58685  -0.51226  -0.46341  -0.43856  -0.41597
 Alpha  occ. eigenvalues --   -0.40323  -0.35724  -0.33472  -0.33002  -0.24928
 Alpha  occ. eigenvalues --   -0.24104
 Alpha virt. eigenvalues --   -0.00933  -0.00341   0.08540   0.12674   0.14150
 Alpha virt. eigenvalues --    0.14619   0.15850   0.17814   0.20358   0.26475
 Alpha virt. eigenvalues --    0.28733   0.30756   0.32332   0.46205   0.48081

 Mulliken charges:
               1
     1  C   -0.102887
     2  C   -0.067040
     3  C   -0.072017
     4  C   -0.085067
     5  C   -0.105938
     6  C   -0.086483
     7  H    0.084890
     8  H    0.104328
     9  H    0.084170
    10  H    0.086346
    11  H    0.084819
    12  H    0.074878
 Sum of Mulliken charges =  -0.00000

 Dipole moment (field-independent basis, Debye):
    X=             -0.0374    Y=              0.2595    Z=              0.1205  Tot=              0.2886
 Quadrupole moment (field-independent basis, Debye-Ang):
   XX=            -31.1454   YY=            -31.9815   ZZ=            -38.7888
   XY=              0.3057   XZ=              0.0465   YZ=             -0.2888

 Normal termination of Gaussian 16 at Fri Nov 10 21:33:52 2023.
