 Gaussian 16, Revision B.01,
 Gaussian 16:  EM64L-G16RevB.01 20-Dec-2017

 ---------------------------------
 # TD=(NStates=1) B3LYP/6-31G(d,p)
 ---------------------------------

 -------
 EMISPCT
 -------
 Symbolic Z-matrix:
 Charge =  0 Multiplicity = 1

                         Standard orientation:
 ---------------------------------------------------------------------
 Center     Atomic      Atomic             Coordinates (Angstroms)
 Number     Number       Type             X           Y           Z
 ---------------------------------------------------------------------
      1          6           0       -0.784182    1.200046   -0.045247
      2          6           0        0.679008    1.204712    0.077639
      3          6           0        1.467716    0.053372   -0.024686
      4          6           0        0.810653   -1.232594   -0.084355
      5          6           0       -0.707837   -1.229465    0.100404
      6          6           0       -1.414011   -0.066820   -0.052903
      7          1           0       -1.208999    2.186583    0.087553
      8          1           0       -2.615420   -0.014868   -0.180658
      9          1           0       -1.361111   -2.029112    0.268409
     10          1           0        1.227224   -2.070036   -0.079900
     11          1           0        2.528206    0.156001    0.059478
     12          1           0        1.122017    2.195926    0.020008
 ---------------------------------------------------------------------

 SCF Done:  E(RB3LYP) =  -232.192474276     A.U. after   13 cycles

 Excitation energies and oscillator strengths:

 Excited State   1:      Singlet-A      5.0299 eV  246.49 nm  f=0.0029  <S**2>=0.000
      20 -> 22         0.51285
      21 -> 22        -0.15294
      21 -> 23         0.45600
 This state for optimization and/or second-order correction.
 Total Energy, E(TD-HF/TD-DFT) =  -232.007629055
 Copying the excited state density for this state as the 1-particle RhoCI density.

 The electronic state is 1-A.
 Alpha  occ. eigenvalues --  -10.20044 -10.19716 -10.19676 -10.19555 -10.19513
 Alpha  occ. eigenvalues --  -10.19133  -0.83125  -0.74321  -0.72735  -0.61696
 Alpha  occ. eigenvalues --   -0.58313  -0.51289  -0.47573  -0.42610  -0.41839
 Alpha  occ. eigenvalues --   -0.40627  -0.35713  -0.34801  -0.32322  -0.25002
 Alpha  occ. eigenvalues --   -0.23090
 Alpha virt. eigenvalues --   -0.02249   0.00364   0.08693   0.13044   0.13774
 Alpha virt. eigenvalues --    0.15310   0.17056   0.18281   0.19089   0.27000
 Alpha virt. eigenvalues --    0.27492   0.29821   0.31879   0.46575   0.47633

 Mulliken charges:
               1
     1  C   -0.083352
     2  C   -0.096473
     3  C   -0.080661
     4  C   -0.074495
     5  C   -0.092999
     6  C   -0.084030
     7  H    0.094890
     8  H    0.075819
     9  H    0.091631
    10  H    0.074433
    11  H    0.093446
    12  H    0.081791
 Sum of Mulliken charges =  -0.00000

 Dipole moment (field-independent basis, Debye):
    X=              0.0637    Y=              0.0072    Z=              0.1237  Tot=              0.1393
 Quadrupole moment (field-independent basis, Debye-Ang):
   XX=            -31.4765   YY=            -31.3420   ZZ=            -38.7839
   XY=             -0.0454   XZ=             -0.0313   YZ=             -0.1135

 Normal termination of Gaussian 16 at Fri Nov 10 20:27:05 2023.
