 Gaussian 16, Revision B.01,
 Gaussian 16:  EM64L-G16RevB.01 20-Dec-2017

 ---------------------------------
 # TD=(NStates=1) B3LYP/6-31G(d,p)
 ---------------------------------

 -------
 EMISPCT
 -------
 Symbolic Z-matrix:
 Charge =  0 Multiplicity = 1

                         Standard orientation:
 ---------------------------------------------------------------------
 Center     Atomic      Atomic             Coordinates (Angstroms)
 Number     Number       Type             X           Y           Z
 ---------------------------------------------------------------------
      1          6           0       -1.306651    0.670094    0.049459
      2          6           0       -0.035145    1.423054   -0.020273
      3          6           0        1.265335    0.769529   -0.067048
      4          6           0        1.267013   -0.696749    0.042001
      5          6           0        0.068553   -1.368044   -0.114624
      6          6           0       -1.208459   -0.756630   -0.059756
      7          1           0       -2.393803    1.120435    0.217589
      8          1           0       -1.945699   -1.436096    0.314109
      9          1           0       -0.060839   -2.486267   -0.183994
     10          1           0        2.089506   -1.261795    0.745922
     11          1           0        2.271655    1.367275   -0.106372
     12          1           0       -0.264702    2.448927    0.034194
 ---------------------------------------------------------------------

 SCF Done:  E(RB3LYP) =  -232.182395311     A.U. after   14 cycles

 Excitation energies and oscillator strengths:

 Excited State   1:      Singlet-A      4.7192 eV  262.72 nm  f=0.0004  <S**2>=0.000
      20 -> 22         0.50699
      21 -> 23         0.48781
 This state for optimization and/or second-order correction.
 Total Energy, E(TD-HF/TD-DFT) =  -232.008967063
 Copying the excited state density for this state as the 1-particle RhoCI density.

 The electronic state is 1-A.
 Alpha  occ. eigenvalues --  -10.21869 -10.21054 -10.21010 -10.20515 -10.19564
 Alpha  occ. eigenvalues --  -10.19114  -0.83071  -0.73195  -0.72753  -0.59357
 Alpha  occ. eigenvalues --   -0.58658  -0.49795  -0.45592  -0.42919  -0.40871
 Alpha  occ. eigenvalues --   -0.40401  -0.35664  -0.34361  -0.31833  -0.24144
 Alpha  occ. eigenvalues --   -0.23305
 Alpha virt. eigenvalues --   -0.02416  -0.01122   0.06833   0.10011   0.13051
 Alpha virt. eigenvalues --    0.13563   0.14957   0.16410   0.19257   0.26143
 Alpha virt. eigenvalues --    0.28006   0.30038   0.30809   0.46459   0.47804

 Mulliken charges:
               1
     1  C   -0.108539
     2  C   -0.083583
     3  C   -0.109788
     4  C   -0.100008
     5  C   -0.083666
     6  C   -0.079213
     7  H    0.092668
     8  H    0.094759
     9  H    0.086491
    10  H    0.097073
    11  H    0.100511
    12  H    0.093295
 Sum of Mulliken charges =  -0.00000

 Dipole moment (field-independent basis, Debye):
    X=             -0.1614    Y=             -0.0165    Z=              0.6229  Tot=              0.6437
 Quadrupole moment (field-independent basis, Debye-Ang):
   XX=            -32.2030   YY=            -32.0143   ZZ=            -38.6708
   XY=              0.3605   XZ=              0.0719   YZ=             -0.6682

 Normal termination of Gaussian 16 at Fri Nov 10 23:04:05 2023.
