 Gaussian 16, Revision B.01,
 Gaussian 16:  EM64L-G16RevB.01 20-Dec-2017

 ---------------------------------
 # TD=(NStates=1) B3LYP/6-31G(d,p)
 ---------------------------------

 -------
 EMISPCT
 -------
 Symbolic Z-matrix:
 Charge =  0 Multiplicity = 1

                         Standard orientation:
 ---------------------------------------------------------------------
 Center     Atomic      Atomic             Coordinates (Angstroms)
 Number     Number       Type             X           Y           Z
 ---------------------------------------------------------------------
      1          6           0        0.053487   -1.407412   -0.065854
      2          6           0        1.314963   -0.676559    0.040618
      3          6           0        1.239181    0.684480   -0.037647
      4          6           0       -0.008545    1.388580   -0.069322
      5          6           0       -1.285838    0.716285   -0.074808
      6          6           0       -1.303511   -0.743982    0.095601
      7          1           0       -0.056681   -2.393506   -0.329733
      8          1           0       -2.222091   -1.245261    0.258820
      9          1           0       -2.152391    1.212586    0.122205
     10          1           0       -0.040347    2.471621    0.175735
     11          1           0        2.154283    1.288543    0.220161
     12          1           0        2.258801   -1.102330    0.221287
 ---------------------------------------------------------------------

 SCF Done:  E(RB3LYP) =  -232.202833767     A.U. after   13 cycles

 Excitation energies and oscillator strengths:

 Excited State   1:      Singlet-A      4.7930 eV  258.68 nm  f=0.0015  <S**2>=0.000
      20 -> 22        -0.46111
      21 -> 23         0.53505
 This state for optimization and/or second-order correction.
 Total Energy, E(TD-HF/TD-DFT) =  -232.026692857
 Copying the excited state density for this state as the 1-particle RhoCI density.

 The electronic state is 1-A.
 Alpha  occ. eigenvalues --  -10.20513 -10.20149 -10.19868 -10.19458 -10.19314
 Alpha  occ. eigenvalues --  -10.19308  -0.82680  -0.74070  -0.72028  -0.60346
 Alpha  occ. eigenvalues --   -0.59079  -0.50957  -0.47722  -0.43433  -0.41958
 Alpha  occ. eigenvalues --   -0.40276  -0.34844  -0.34410  -0.33013  -0.24716
 Alpha  occ. eigenvalues --   -0.22576
 Alpha virt. eigenvalues --   -0.02169  -0.00680   0.09471   0.12074   0.14745
 Alpha virt. eigenvalues --    0.15251   0.16677   0.18427   0.19722   0.26473
 Alpha virt. eigenvalues --    0.27972   0.29447   0.30399   0.46929   0.47227

 Mulliken charges:
               1
     1  C   -0.110389
     2  C   -0.069800
     3  C   -0.084995
     4  C   -0.093101
     5  C   -0.084560
     6  C   -0.101810
     7  H    0.091464
     8  H    0.098470
     9  H    0.087162
    10  H    0.089167
    11  H    0.082528
    12  H    0.095862
 Sum of Mulliken charges =  -0.00000

 Dipole moment (field-independent basis, Debye):
    X=             -0.1057    Y=             -0.0680    Z=              0.4237  Tot=              0.4419
 Quadrupole moment (field-independent basis, Debye-Ang):
   XX=            -30.7191   YY=            -32.1955   ZZ=            -38.6759
   XY=              0.1352   XZ=              0.0700   YZ=              0.9146

 Normal termination of Gaussian 16 at Fri Nov 10 21:22:02 2023.
