 Gaussian 16, Revision B.01,
 Gaussian 16:  EM64L-G16RevB.01 20-Dec-2017

 ---------------------------------
 # TD=(NStates=1) B3LYP/6-31G(d,p)
 ---------------------------------

 -------
 EMISPCT
 -------
 Symbolic Z-matrix:
 Charge =  0 Multiplicity = 1

                         Standard orientation:
 ---------------------------------------------------------------------
 Center     Atomic      Atomic             Coordinates (Angstroms)
 Number     Number       Type             X           Y           Z
 ---------------------------------------------------------------------
      1          6           0        1.270746   -0.698330   -0.091636
      2          6           0        1.296347    0.766098   -0.013992
      3          6           0       -0.004924    1.378997    0.046966
      4          6           0       -1.246234    0.612855   -0.053607
      5          6           0       -1.267908   -0.671553    0.004004
      6          6           0        0.038228   -1.415087    0.021295
      7          1           0        2.208102   -1.274118   -0.091791
      8          1           0       -0.067513   -2.479963    0.262704
      9          1           0       -2.138603   -1.250198    0.087854
     10          1           0       -2.245528    1.253936   -0.042858
     11          1           0       -0.383543    2.511260   -0.040256
     12          1           0        2.109556    1.401198    0.346164
 ---------------------------------------------------------------------

 SCF Done:  E(RB3LYP) =  -232.196593580     A.U. after   13 cycles

 Excitation energies and oscillator strengths:

 Excited State   1:      Singlet-A      5.1328 eV  241.55 nm  f=0.0029  <S**2>=0.000
      20 -> 22        -0.44712
      21 -> 22         0.14913
      21 -> 23         0.51975
 This state for optimization and/or second-order correction.
 Total Energy, E(TD-HF/TD-DFT) =  -232.007967345
 Copying the excited state density for this state as the 1-particle RhoCI density.

 The electronic state is 1-A.
 Alpha  occ. eigenvalues --  -10.20879 -10.20832 -10.20710 -10.20367 -10.19023
 Alpha  occ. eigenvalues --  -10.18357  -0.83539  -0.74618  -0.72021  -0.59919
 Alpha  occ. eigenvalues --   -0.58652  -0.50634  -0.46177  -0.43006  -0.41863
 Alpha  occ. eigenvalues --   -0.40020  -0.35595  -0.33881  -0.32030  -0.25584
 Alpha  occ. eigenvalues --   -0.23284
 Alpha virt. eigenvalues --   -0.01748  -0.00224   0.07454   0.12220   0.13371
 Alpha virt. eigenvalues --    0.14306   0.16058   0.16678   0.18864   0.25663
 Alpha virt. eigenvalues --    0.27756   0.29050   0.33770   0.46583   0.47930

 Mulliken charges:
               1
     1  C   -0.103752
     2  C   -0.110356
     3  C   -0.089267
     4  C   -0.074003
     5  C   -0.065715
     6  C   -0.097106
     7  H    0.093968
     8  H    0.094143
     9  H    0.086025
    10  H    0.073283
    11  H    0.082883
    12  H    0.109897
 Sum of Mulliken charges =  -0.00000

 Dipole moment (field-independent basis, Debye):
    X=             -0.1221    Y=             -0.1990    Z=              0.3556  Tot=              0.4254
 Quadrupole moment (field-independent basis, Debye-Ang):
   XX=            -31.6016   YY=            -31.8907   ZZ=            -38.8729
   XY=              0.0037   XZ=              0.3871   YZ=             -0.2429

 Normal termination of Gaussian 16 at Fri Nov 10 20:34:24 2023.
