 Gaussian 16, Revision B.01,
 Gaussian 16:  EM64L-G16RevB.01 20-Dec-2017

 ---------------------------------
 # TD=(NStates=1) B3LYP/6-31G(d,p)
 ---------------------------------

 -------
 EMISPCT
 -------
 Symbolic Z-matrix:
 Charge =  0 Multiplicity = 1

                         Standard orientation:
 ---------------------------------------------------------------------
 Center     Atomic      Atomic             Coordinates (Angstroms)
 Number     Number       Type             X           Y           Z
 ---------------------------------------------------------------------
      1          6           0       -1.107066   -0.921352    0.005882
      2          6           0       -1.356652    0.430669    0.008268
      3          6           0       -0.361181    1.367466   -0.018715
      4          6           0        1.080426    0.942074    0.028372
      5          6           0        1.434213   -0.442299    0.029500
      6          6           0        0.285233   -1.401551   -0.087326
      7          1           0       -1.811226   -1.722251    0.389772
      8          1           0        0.585067   -2.316421   -0.148177
      9          1           0        2.381099   -0.795076    0.198129
     10          1           0        1.850169    1.845400   -0.158495
     11          1           0       -0.460918    2.418188    0.107090
     12          1           0       -2.394029    0.720110   -0.184203
 ---------------------------------------------------------------------

 SCF Done:  E(RB3LYP) =  -232.189448826     A.U. after   13 cycles

 Excitation energies and oscillator strengths:

 Excited State   1:      Singlet-A      4.8441 eV  255.95 nm  f=0.0005  <S**2>=0.000
      20 -> 22         0.49059
      21 -> 23         0.49766
 This state for optimization and/or second-order correction.
 Total Energy, E(TD-HF/TD-DFT) =  -232.011431131
 Copying the excited state density for this state as the 1-particle RhoCI density.

 The electronic state is 1-A.
 Alpha  occ. eigenvalues --  -10.21059 -10.20086 -10.19820 -10.19387 -10.19375
 Alpha  occ. eigenvalues --  -10.18958  -0.83014  -0.74176  -0.72298  -0.60680
 Alpha  occ. eigenvalues --   -0.58960  -0.50768  -0.47686  -0.43341  -0.42228
 Alpha  occ. eigenvalues --   -0.39842  -0.34937  -0.34559  -0.32804  -0.24505
 Alpha  occ. eigenvalues --   -0.22940
 Alpha virt. eigenvalues --   -0.02028  -0.00608   0.08123   0.12701   0.14565
 Alpha virt. eigenvalues --    0.15512   0.16503   0.17490   0.18967   0.25723
 Alpha virt. eigenvalues --    0.28444   0.28895   0.31581   0.46834   0.47873

 Mulliken charges:
               1
     1  C   -0.100338
     2  C   -0.080460
     3  C   -0.080383
     4  C   -0.104068
     5  C   -0.087345
     6  C   -0.081212
     7  H    0.098538
     8  H    0.077867
     9  H    0.093796
    10  H    0.079883
    11  H    0.092852
    12  H    0.090869
 Sum of Mulliken charges =  -0.00000

 Dipole moment (field-independent basis, Debye):
    X=              0.1051    Y=             -0.1299    Z=              0.1526  Tot=              0.2263
 Quadrupole moment (field-independent basis, Debye-Ang):
   XX=            -31.8145   YY=            -31.2661   ZZ=            -38.7041
   XY=             -0.3294   XZ=             -0.1430   YZ=             -0.5564

 Normal termination of Gaussian 16 at Fri Nov 10 22:00:08 2023.
