 Gaussian 16, Revision B.01,
 Gaussian 16:  EM64L-G16RevB.01 20-Dec-2017

 ---------------------------------
 # TD=(NStates=1) B3LYP/6-31G(d,p)
 ---------------------------------

 -------
 EMISPCT
 -------
 Symbolic Z-matrix:
 Charge =  0 Multiplicity = 1

                         Standard orientation:
 ---------------------------------------------------------------------
 Center     Atomic      Atomic             Coordinates (Angstroms)
 Number     Number       Type             X           Y           Z
 ---------------------------------------------------------------------
      1          6           0       -1.315403   -0.588895   -0.077592
      2          6           0       -1.174171    0.836977    0.028408
      3          6           0        0.096080    1.388442    0.023232
      4          6           0        1.317572    0.579822   -0.064668
      5          6           0        1.190378   -0.860133    0.069570
      6          6           0       -0.148100   -1.384561    0.023202
      7          1           0       -2.257749   -1.081990    0.018439
      8          1           0       -0.189507   -2.446072   -0.195235
      9          1           0        2.084763   -1.438932    0.132275
     10          1           0        2.297164    1.237465   -0.044322
     11          1           0        0.472047    2.475399   -0.146660
     12          1           0       -2.204853    1.424220    0.222589
 ---------------------------------------------------------------------

 SCF Done:  E(RB3LYP) =  -232.211869579     A.U. after   13 cycles

 Excitation energies and oscillator strengths:

 Excited State   1:      Singlet-A      5.1154 eV  242.38 nm  f=0.0006  <S**2>=0.000
      20 -> 22         0.44012
      20 -> 23        -0.22131
      21 -> 22         0.26519
      21 -> 23         0.43194
 This state for optimization and/or second-order correction.
 Total Energy, E(TD-HF/TD-DFT) =  -232.023882794
 Copying the excited state density for this state as the 1-particle RhoCI density.

 The electronic state is 1-A.
 Alpha  occ. eigenvalues --  -10.20938 -10.20931 -10.20312 -10.20098 -10.19692
 Alpha  occ. eigenvalues --  -10.19641  -0.83301  -0.73401  -0.73004  -0.59677
 Alpha  occ. eigenvalues --   -0.58698  -0.50504  -0.45611  -0.43494  -0.41490
 Alpha  occ. eigenvalues --   -0.39837  -0.35737  -0.34566  -0.31529  -0.24684
 Alpha  occ. eigenvalues --   -0.24181
 Alpha virt. eigenvalues --   -0.01400  -0.00721   0.07358   0.12006   0.12384
 Alpha virt. eigenvalues --    0.14704   0.15943   0.17562   0.17879   0.26323
 Alpha virt. eigenvalues --    0.28342   0.29239   0.31832   0.47097   0.48985

 Mulliken charges:
               1
     1  C   -0.085065
     2  C   -0.091980
     3  C   -0.082155
     4  C   -0.098189
     5  C   -0.087673
     6  C   -0.096133
     7  H    0.095887
     8  H    0.089018
     9  H    0.095337
    10  H    0.088085
    11  H    0.086708
    12  H    0.086160
 Sum of Mulliken charges =  -0.00000

 Dipole moment (field-independent basis, Debye):
    X=              0.1048    Y=             -0.1384    Z=              0.0037  Tot=              0.1736
 Quadrupole moment (field-independent basis, Debye-Ang):
   XX=            -31.1052   YY=            -32.2572   ZZ=            -39.0903
   XY=              0.5385   XZ=             -0.3141   YZ=              0.1223

 Normal termination of Gaussian 16 at Fri Nov 10 21:16:50 2023.
