 Gaussian 16, Revision B.01,
 Gaussian 16:  EM64L-G16RevB.01 20-Dec-2017

 ---------------------------------
 # TD=(NStates=1) B3LYP/6-31G(d,p)
 ---------------------------------

 -------
 EMISPCT
 -------
 Symbolic Z-matrix:
 Charge =  0 Multiplicity = 1

                         Standard orientation:
 ---------------------------------------------------------------------
 Center     Atomic      Atomic             Coordinates (Angstroms)
 Number     Number       Type             X           Y           Z
 ---------------------------------------------------------------------
      1          6           0        0.178983    1.383488    0.063261
      2          6           0        1.361976    0.454503   -0.061259
      3          6           0        1.095558   -0.876591   -0.043618
      4          6           0       -0.231970   -1.384951    0.024302
      5          6           0       -1.346115   -0.560285    0.012062
      6          6           0       -1.068564    0.910081   -0.084154
      7          1           0        0.399670    2.487975    0.301697
      8          1           0       -2.030605    1.713572    0.083918
      9          1           0       -2.371493   -0.885634   -0.040170
     10          1           0       -0.445850   -2.366517    0.019794
     11          1           0        2.075510   -1.417686    0.397057
     12          1           0        2.433560    0.910830   -0.225854
 ---------------------------------------------------------------------

 SCF Done:  E(RB3LYP) =  -232.185805866     A.U. after   13 cycles

 Excitation energies and oscillator strengths:

 Excited State   1:      Singlet-A      5.1614 eV  240.21 nm  f=0.0021  <S**2>=0.000
      20 -> 22         0.54374
      21 -> 23        -0.43426
 This state for optimization and/or second-order correction.
 Total Energy, E(TD-HF/TD-DFT) =  -231.996126867
 Copying the excited state density for this state as the 1-particle RhoCI density.

 The electronic state is 1-A.
 Alpha  occ. eigenvalues --  -10.20787 -10.20656 -10.20101 -10.20098 -10.20000
 Alpha  occ. eigenvalues --  -10.18783  -0.84044  -0.73945  -0.73550  -0.59982
 Alpha  occ. eigenvalues --   -0.57852  -0.50349  -0.45511  -0.43728  -0.41561
 Alpha  occ. eigenvalues --   -0.39375  -0.36672  -0.34207  -0.31389  -0.24764
 Alpha  occ. eigenvalues --   -0.24221
 Alpha virt. eigenvalues --   -0.01629  -0.00125   0.06658   0.09886   0.13544
 Alpha virt. eigenvalues --    0.14463   0.15837   0.16239   0.18294   0.25779
 Alpha virt. eigenvalues --    0.28404   0.30747   0.33202   0.46564   0.47249

 Mulliken charges:
               1
     1  C   -0.077322
     2  C   -0.098563
     3  C   -0.085647
     4  C   -0.078422
     5  C   -0.089910
     6  C   -0.088681
     7  H    0.088555
     8  H    0.064322
     9  H    0.098289
    10  H    0.086075
    11  H    0.085402
    12  H    0.095903
 Sum of Mulliken charges =  -0.00000

 Dipole moment (field-independent basis, Debye):
    X=              0.0135    Y=              0.0162    Z=              0.3137  Tot=              0.3144
 Quadrupole moment (field-independent basis, Debye-Ang):
   XX=            -31.4196   YY=            -32.5732   ZZ=            -38.7798
   XY=              1.0633   XZ=              0.2945   YZ=              0.1041

 Normal termination of Gaussian 16 at Fri Nov 10 21:59:06 2023.
