 Gaussian 16, Revision B.01,
 Gaussian 16:  EM64L-G16RevB.01 20-Dec-2017

 ---------------------------------
 # TD=(NStates=1) B3LYP/6-31G(d,p)
 ---------------------------------

 -------
 EMISPCT
 -------
 Symbolic Z-matrix:
 Charge =  0 Multiplicity = 1

                         Standard orientation:
 ---------------------------------------------------------------------
 Center     Atomic      Atomic             Coordinates (Angstroms)
 Number     Number       Type             X           Y           Z
 ---------------------------------------------------------------------
      1          6           0       -0.138448   -1.388629    0.034388
      2          6           0       -1.371894   -0.560545   -0.042608
      3          6           0       -1.171962    0.809675   -0.014517
      4          6           0        0.127072    1.399478   -0.050602
      5          6           0        1.369815    0.540617    0.019349
      6          6           0        1.190105   -0.825776    0.015527
      7          1           0       -0.045877   -2.355107   -0.004298
      8          1           0        2.049418   -1.362429    0.068801
      9          1           0        2.256777    1.225831   -0.173534
     10          1           0        0.184733    2.384712    0.109847
     11          1           0       -2.079189    1.293421    0.397319
     12          1           0       -2.393987   -1.035354   -0.167370
 ---------------------------------------------------------------------

 SCF Done:  E(RB3LYP) =  -232.187245977     A.U. after   13 cycles

 Excitation energies and oscillator strengths:

 Excited State   1:      Singlet-A      4.9785 eV  249.04 nm  f=0.0011  <S**2>=0.000
      20 -> 22         0.49246
      21 -> 22        -0.12255
      21 -> 23        -0.48870
 This state for optimization and/or second-order correction.
 Total Energy, E(TD-HF/TD-DFT) =  -232.004288921
 Copying the excited state density for this state as the 1-particle RhoCI density.

 The electronic state is 1-A.
 Alpha  occ. eigenvalues --  -10.20494 -10.20275 -10.19150 -10.19130 -10.18946
 Alpha  occ. eigenvalues --  -10.18846  -0.83072  -0.74797  -0.72411  -0.61583
 Alpha  occ. eigenvalues --   -0.58496  -0.51308  -0.47978  -0.42572  -0.42248
 Alpha  occ. eigenvalues --   -0.40367  -0.35588  -0.34792  -0.31890  -0.25041
 Alpha  occ. eigenvalues --   -0.23074
 Alpha virt. eigenvalues --   -0.02136  -0.00209   0.10074   0.11710   0.14322
 Alpha virt. eigenvalues --    0.15909   0.16781   0.17775   0.19668   0.26834
 Alpha virt. eigenvalues --    0.28222   0.29370   0.31529   0.45508   0.49041

 Mulliken charges:
               1
     1  C   -0.071151
     2  C   -0.096165
     3  C   -0.088640
     4  C   -0.096269
     5  C   -0.089762
     6  C   -0.092408
     7  H    0.076096
     8  H    0.089697
     9  H    0.095084
    10  H    0.084886
    11  H    0.090712
    12  H    0.097920
 Sum of Mulliken charges =  -0.00000

 Dipole moment (field-independent basis, Debye):
    X=              0.0686    Y=             -0.1059    Z=              0.1462  Tot=              0.1931
 Quadrupole moment (field-independent basis, Debye-Ang):
   XX=            -31.1010   YY=            -31.8668   ZZ=            -38.6100
   XY=              0.2493   XZ=             -0.5167   YZ=              0.5209

 Normal termination of Gaussian 16 at Fri Nov 10 21:48:29 2023.
