 Gaussian 16, Revision B.01,
 Gaussian 16:  EM64L-G16RevB.01 20-Dec-2017

 ---------------------------------
 # TD=(NStates=1) B3LYP/6-31G(d,p)
 ---------------------------------

 -------
 EMISPCT
 -------
 Symbolic Z-matrix:
 Charge =  0 Multiplicity = 1

                         Standard orientation:
 ---------------------------------------------------------------------
 Center     Atomic      Atomic             Coordinates (Angstroms)
 Number     Number       Type             X           Y           Z
 ---------------------------------------------------------------------
      1          6           0       -0.342701   -1.340542   -0.013333
      2          6           0       -1.425026   -0.383132    0.004069
      3          6           0       -1.053055    0.966916   -0.006268
      4          6           0        0.415743    1.383321   -0.041624
      5          6           0        1.398285    0.390640    0.036009
      6          6           0        1.027560   -0.986037   -0.050626
      7          1           0       -0.477986   -2.549231    0.021304
      8          1           0        1.681258   -1.764306    0.066132
      9          1           0        2.602432    0.631202    0.111256
     10          1           0        0.436985    2.528185    0.096486
     11          1           0       -1.963766    1.712382   -0.057857
     12          1           0       -2.403758   -0.745226    0.193322
 ---------------------------------------------------------------------

 SCF Done:  E(RB3LYP) =  -232.201012402     A.U. after   13 cycles

 Excitation energies and oscillator strengths:

 Excited State   1:      Singlet-A      5.2005 eV  238.41 nm  f=0.0006  <S**2>=0.000
      20 -> 22        -0.47905
      21 -> 23         0.51819
 This state for optimization and/or second-order correction.
 Total Energy, E(TD-HF/TD-DFT) =  -232.009895785
 Copying the excited state density for this state as the 1-particle RhoCI density.

 The electronic state is 1-A.
 Alpha  occ. eigenvalues --  -10.21480 -10.21343 -10.21202 -10.20700 -10.19611
 Alpha  occ. eigenvalues --  -10.18980  -0.83194  -0.73981  -0.72381  -0.59132
 Alpha  occ. eigenvalues --   -0.58748  -0.50623  -0.45006  -0.43475  -0.41853
 Alpha  occ. eigenvalues --   -0.39306  -0.35233  -0.34006  -0.32380  -0.25220
 Alpha  occ. eigenvalues --   -0.23838
 Alpha virt. eigenvalues --   -0.01300  -0.00407   0.06691   0.11415   0.12350
 Alpha virt. eigenvalues --    0.13535   0.14367   0.16808   0.18738   0.25440
 Alpha virt. eigenvalues --    0.28357   0.30235   0.31406   0.45611   0.49173

 Mulliken charges:
               1
     1  C   -0.094355
     2  C   -0.069258
     3  C   -0.114117
     4  C   -0.095017
     5  C   -0.089699
     6  C   -0.066008
     7  H    0.071693
     8  H    0.090054
     9  H    0.081976
    10  H    0.099761
    11  H    0.088127
    12  H    0.096844
 Sum of Mulliken charges =  -0.00000

 Dipole moment (field-independent basis, Debye):
    X=             -0.1104    Y=             -0.0937    Z=              0.2768  Tot=              0.3124
 Quadrupole moment (field-independent basis, Debye-Ang):
   XX=            -31.5020   YY=            -31.8186   ZZ=            -39.2683
   XY=             -0.6944   XZ=              0.0191   YZ=             -0.0936

 Normal termination of Gaussian 16 at Fri Nov 10 20:02:28 2023.
