 Gaussian 16, Revision B.01,
 Gaussian 16:  EM64L-G16RevB.01 20-Dec-2017

 ---------------------------------
 # TD=(NStates=1) B3LYP/6-31G(d,p)
 ---------------------------------

 -------
 EMISPCT
 -------
 Symbolic Z-matrix:
 Charge =  0 Multiplicity = 1

                         Standard orientation:
 ---------------------------------------------------------------------
 Center     Atomic      Atomic             Coordinates (Angstroms)
 Number     Number       Type             X           Y           Z
 ---------------------------------------------------------------------
      1          6           0        0.116354   -1.407245    0.110806
      2          6           0       -1.237071   -0.796247    0.043955
      3          6           0       -1.276331    0.603946   -0.091727
      4          6           0       -0.131468    1.423064   -0.015754
      5          6           0        1.211857    0.791049   -0.010050
      6          6           0        1.320983   -0.612004   -0.060354
      7          1           0        0.255518   -2.483678   -0.085315
      8          1           0        2.224043   -1.134315   -0.009950
      9          1           0        2.106172    1.386888   -0.118902
     10          1           0       -0.184054    2.601553    0.567028
     11          1           0       -2.304455    1.021913   -0.163103
     12          1           0       -2.123172   -1.407742   -0.051016
 ---------------------------------------------------------------------

 SCF Done:  E(RB3LYP) =  -232.197456348     A.U. after   13 cycles

 Excitation energies and oscillator strengths:

 Excited State   1:      Singlet-A      4.8801 eV  254.06 nm  f=0.0002  <S**2>=0.000
      20 -> 22         0.51423
      21 -> 23         0.48337
 This state for optimization and/or second-order correction.
 Total Energy, E(TD-HF/TD-DFT) =  -232.018116878
 Copying the excited state density for this state as the 1-particle RhoCI density.

 The electronic state is 1-A.
 Alpha  occ. eigenvalues --  -10.21926 -10.20394 -10.20292 -10.20213 -10.19955
 Alpha  occ. eigenvalues --  -10.19438  -0.82927  -0.74217  -0.71892  -0.59809
 Alpha  occ. eigenvalues --   -0.58609  -0.50162  -0.46351  -0.42883  -0.42360
 Alpha  occ. eigenvalues --   -0.39352  -0.35192  -0.33838  -0.32749  -0.25119
 Alpha  occ. eigenvalues --   -0.23157
 Alpha virt. eigenvalues --   -0.02872  -0.00413   0.06376   0.11735   0.13540
 Alpha virt. eigenvalues --    0.14545   0.15671   0.17577   0.18473   0.25875
 Alpha virt. eigenvalues --    0.28243   0.29225   0.30747   0.47192   0.47484

 Mulliken charges:
               1
     1  C   -0.110277
     2  C   -0.082942
     3  C   -0.080300
     4  C   -0.098699
     5  C   -0.094253
     6  C   -0.072431
     7  H    0.088368
     8  H    0.092637
     9  H    0.094829
    10  H    0.076383
    11  H    0.088507
    12  H    0.098177
 Sum of Mulliken charges =  -0.00000

 Dipole moment (field-independent basis, Debye):
    X=              0.0353    Y=             -0.2825    Z=              0.0383  Tot=              0.2872
 Quadrupole moment (field-independent basis, Debye-Ang):
   XX=            -31.0278   YY=            -32.5688   ZZ=            -38.9073
   XY=              0.2007   XZ=              0.0725   YZ=              1.1358

 Normal termination of Gaussian 16 at Fri Nov 10 19:49:29 2023.
