 Gaussian 16, Revision B.01,
 Gaussian 16:  EM64L-G16RevB.01 20-Dec-2017

 ---------------------------------
 # TD=(NStates=1) B3LYP/6-31G(d,p)
 ---------------------------------

 -------
 EMISPCT
 -------
 Symbolic Z-matrix:
 Charge =  0 Multiplicity = 1

                         Standard orientation:
 ---------------------------------------------------------------------
 Center     Atomic      Atomic             Coordinates (Angstroms)
 Number     Number       Type             X           Y           Z
 ---------------------------------------------------------------------
      1          6           0        0.285463    1.320202    0.059081
      2          6           0        1.407342    0.439375   -0.065851
      3          6           0        1.068126   -0.960467   -0.014511
      4          6           0       -0.291569   -1.358096    0.170334
      5          6           0       -1.447179   -0.399191   -0.091767
      6          6           0       -1.052588    0.917529   -0.027326
      7          1           0        0.654820    2.257578    0.312663
      8          1           0       -1.723913    1.923728   -0.038681
      9          1           0       -2.410384   -0.756342   -0.104215
     10          1           0       -0.613941   -2.299754   -0.036045
     11          1           0        1.884064   -1.669533   -0.160526
     12          1           0        2.391779    0.788213   -0.152967
 ---------------------------------------------------------------------

 SCF Done:  E(RB3LYP) =  -232.198245275     A.U. after   13 cycles

 Excitation energies and oscillator strengths:

 Excited State   1:      Singlet-A      5.0325 eV  246.37 nm  f=0.0017  <S**2>=0.000
      20 -> 22         0.50915
      21 -> 22         0.14070
      21 -> 23         0.46279
 This state for optimization and/or second-order correction.
 Total Energy, E(TD-HF/TD-DFT) =  -232.013305458
 Copying the excited state density for this state as the 1-particle RhoCI density.

 The electronic state is 1-A.
 Alpha  occ. eigenvalues --  -10.20208 -10.19932 -10.19868 -10.19360 -10.19156
 Alpha  occ. eigenvalues --  -10.18584  -0.83411  -0.74040  -0.73031  -0.60594
 Alpha  occ. eigenvalues --   -0.59378  -0.51092  -0.47808  -0.44079  -0.41485
 Alpha  occ. eigenvalues --   -0.39666  -0.36333  -0.34583  -0.31328  -0.24892
 Alpha  occ. eigenvalues --   -0.23476
 Alpha virt. eigenvalues --   -0.02175  -0.00026   0.09221   0.12988   0.13265
 Alpha virt. eigenvalues --    0.15631   0.16505   0.18688   0.19602   0.25593
 Alpha virt. eigenvalues --    0.28756   0.30031   0.32353   0.46224   0.49091

 Mulliken charges:
               1
     1  C   -0.079003
     2  C   -0.083238
     3  C   -0.089074
     4  C   -0.109266
     5  C   -0.107466
     6  C   -0.061910
     7  H    0.086873
     8  H    0.072159
     9  H    0.100546
    10  H    0.089619
    11  H    0.089409
    12  H    0.091352
 Sum of Mulliken charges =  -0.00000

 Dipole moment (field-independent basis, Debye):
    X=              0.1839    Y=              0.0545    Z=             -0.1504  Tot=              0.2437
 Quadrupole moment (field-independent basis, Debye-Ang):
   XX=            -30.8786   YY=            -32.2305   ZZ=            -38.6835
   XY=              0.9155   XZ=             -0.0410   YZ=              0.8326

 Normal termination of Gaussian 16 at Fri Nov 10 20:09:27 2023.
