 Gaussian 16, Revision B.01,
 Gaussian 16:  EM64L-G16RevB.01 20-Dec-2017

 ---------------------------------
 # TD=(NStates=1) B3LYP/6-31G(d,p)
 ---------------------------------

 -------
 EMISPCT
 -------
 Symbolic Z-matrix:
 Charge =  0 Multiplicity = 1

                         Standard orientation:
 ---------------------------------------------------------------------
 Center     Atomic      Atomic             Coordinates (Angstroms)
 Number     Number       Type             X           Y           Z
 ---------------------------------------------------------------------
      1          6           0       -0.866313   -1.101756    0.008921
      2          6           0       -1.508373    0.178264    0.053325
      3          6           0       -0.565767    1.359439   -0.007537
      4          6           0        0.904773    1.132842   -0.053397
      5          6           0        1.460427   -0.209419    0.044151
      6          6           0        0.530513   -1.348572   -0.090555
      7          1           0       -1.507011   -1.893154    0.143743
      8          1           0        0.964368   -2.303951   -0.181055
      9          1           0        2.350894   -0.519853    0.391964
     10          1           0        1.716728    2.014728    0.034250
     11          1           0       -0.739480    2.390873   -0.108178
     12          1           0       -2.517057    0.246558   -0.010170
 ---------------------------------------------------------------------

 SCF Done:  E(RB3LYP) =  -232.188528508     A.U. after   13 cycles

 Excitation energies and oscillator strengths:

 Excited State   1:      Singlet-A      4.7581 eV  260.57 nm  f=0.0015  <S**2>=0.000
      20 -> 22         0.53522
      21 -> 23        -0.45999
 This state for optimization and/or second-order correction.
 Total Energy, E(TD-HF/TD-DFT) =  -232.013671011
 Copying the excited state density for this state as the 1-particle RhoCI density.

 The electronic state is 1-A.
 Alpha  occ. eigenvalues --  -10.21340 -10.20906 -10.20276 -10.19565 -10.19426
 Alpha  occ. eigenvalues --  -10.19101  -0.81930  -0.73300  -0.72458  -0.60829
 Alpha  occ. eigenvalues --   -0.58796  -0.50994  -0.48609  -0.42361  -0.41651
 Alpha  occ. eigenvalues --   -0.40333  -0.36038  -0.33598  -0.32522  -0.23906
 Alpha  occ. eigenvalues --   -0.23257
 Alpha virt. eigenvalues --   -0.02365  -0.00673   0.09650   0.11597   0.14208
 Alpha virt. eigenvalues --    0.15709   0.15848   0.18186   0.19526   0.26420
 Alpha virt. eigenvalues --    0.26896   0.27811   0.30145   0.45223   0.48072

 Mulliken charges:
               1
     1  C   -0.079284
     2  C   -0.085688
     3  C   -0.096977
     4  C   -0.109358
     5  C   -0.078570
     6  C   -0.094571
     7  H    0.083442
     8  H    0.091241
     9  H    0.095079
    10  H    0.083223
    11  H    0.096314
    12  H    0.095149
 Sum of Mulliken charges =   0.00000

 Dipole moment (field-independent basis, Debye):
    X=             -0.0097    Y=             -0.2285    Z=              0.1892  Tot=              0.2968
 Quadrupole moment (field-independent basis, Debye-Ang):
   XX=            -31.0418   YY=            -31.4497   ZZ=            -38.9525
   XY=             -0.2204   XZ=              0.6359   YZ=             -0.2444

 Normal termination of Gaussian 16 at Fri Nov 10 20:34:34 2023.
