 Gaussian 16, Revision B.01,
 Gaussian 16:  EM64L-G16RevB.01 20-Dec-2017

 ---------------------------------
 # TD=(NStates=1) B3LYP/6-31G(d,p)
 ---------------------------------

 -------
 EMISPCT
 -------
 Symbolic Z-matrix:
 Charge =  0 Multiplicity = 1

                         Standard orientation:
 ---------------------------------------------------------------------
 Center     Atomic      Atomic             Coordinates (Angstroms)
 Number     Number       Type             X           Y           Z
 ---------------------------------------------------------------------
      1          6           0       -1.156991   -0.915582   -0.079176
      2          6           0        0.176134   -1.376026   -0.066529
      3          6           0        1.293910   -0.562909    0.009670
      4          6           0        1.102710    0.867389   -0.048902
      5          6           0       -0.177761    1.418222   -0.015927
      6          6           0       -1.253376    0.550042    0.092430
      7          1           0       -2.101790   -1.462049    0.040528
      8          1           0       -2.310965    1.056324    0.083002
      9          1           0       -0.474000    2.371012    0.052951
     10          1           0        2.084544    1.443614   -0.110238
     11          1           0        2.482515   -0.860128    0.356629
     12          1           0        0.411945   -2.435589    0.227732
 ---------------------------------------------------------------------

 SCF Done:  E(RB3LYP) =  -232.197938175     A.U. after   13 cycles

 Excitation energies and oscillator strengths:

 Excited State   1:      Singlet-A      5.2271 eV  237.20 nm  f=0.0019  <S**2>=0.000
      20 -> 22         0.49048
      20 -> 23         0.10380
      21 -> 22         0.17689
      21 -> 23        -0.46566
 This state for optimization and/or second-order correction.
 Total Energy, E(TD-HF/TD-DFT) =  -232.005847015
 Copying the excited state density for this state as the 1-particle RhoCI density.

 The electronic state is 1-A.
 Alpha  occ. eigenvalues --  -10.20885 -10.20478 -10.20127 -10.20121 -10.19891
 Alpha  occ. eigenvalues --  -10.18384  -0.84169  -0.74705  -0.72615  -0.60521
 Alpha  occ. eigenvalues --   -0.57913  -0.51050  -0.45070  -0.44557  -0.41729
 Alpha  occ. eigenvalues --   -0.39260  -0.35708  -0.34238  -0.31979  -0.25399
 Alpha  occ. eigenvalues --   -0.23807
 Alpha virt. eigenvalues --   -0.01668   0.00136   0.06061   0.11470   0.13565
 Alpha virt. eigenvalues --    0.14023   0.16318   0.17161   0.19285   0.25869
 Alpha virt. eigenvalues --    0.28090   0.31697   0.33324   0.45853   0.48452

 Mulliken charges:
               1
     1  C   -0.086776
     2  C   -0.102224
     3  C   -0.076818
     4  C   -0.096808
     5  C   -0.038486
     6  C   -0.113531
     7  H    0.103294
     8  H    0.073162
     9  H    0.085214
    10  H    0.083521
    11  H    0.083796
    12  H    0.085656
 Sum of Mulliken charges =  -0.00000

 Dipole moment (field-independent basis, Debye):
    X=             -0.0916    Y=              0.1712    Z=              0.3614  Tot=              0.4102
 Quadrupole moment (field-independent basis, Debye-Ang):
   XX=            -31.2829   YY=            -32.5278   ZZ=            -38.8441
   XY=              0.0206   XZ=              0.3775   YZ=             -0.6647

 Normal termination of Gaussian 16 at Fri Nov 10 22:03:45 2023.
