 Gaussian 16, Revision B.01,
 Gaussian 16:  EM64L-G16RevB.01 20-Dec-2017

 ---------------------------------
 # TD=(NStates=1) B3LYP/6-31G(d,p)
 ---------------------------------

 -------
 EMISPCT
 -------
 Symbolic Z-matrix:
 Charge =  0 Multiplicity = 1

                         Standard orientation:
 ---------------------------------------------------------------------
 Center     Atomic      Atomic             Coordinates (Angstroms)
 Number     Number       Type             X           Y           Z
 ---------------------------------------------------------------------
      1          6           0       -0.218860   -1.393387   -0.017189
      2          6           0       -1.322984   -0.535583    0.005079
      3          6           0       -1.140358    0.879205    0.053279
      4          6           0        0.206082    1.340737   -0.120256
      5          6           0        1.346563    0.528921    0.032351
      6          6           0        1.134832   -0.866841   -0.009234
      7          1           0       -0.506304   -2.380017   -0.087547
      8          1           0        1.998784   -1.537506    0.027649
      9          1           0        2.286797    0.945684    0.327072
     10          1           0        0.305510    2.429925   -0.178209
     11          1           0       -1.833282    1.665449    0.228906
     12          1           0       -2.283163   -0.841846    0.017942
 ---------------------------------------------------------------------

 SCF Done:  E(RB3LYP) =  -232.227018468     A.U. after   13 cycles

 Excitation energies and oscillator strengths:

 Excited State   1:      Singlet-A      5.1214 eV  242.09 nm  f=0.0000  <S**2>=0.000
      20 -> 22        -0.49553
      21 -> 23         0.49628
 This state for optimization and/or second-order correction.
 Total Energy, E(TD-HF/TD-DFT) =  -232.038809771
 Copying the excited state density for this state as the 1-particle RhoCI density.

 The electronic state is 1-A.
 Alpha  occ. eigenvalues --  -10.19757 -10.19149 -10.19072 -10.18999 -10.18865
 Alpha  occ. eigenvalues --  -10.18374  -0.83607  -0.74284  -0.73053  -0.60071
 Alpha  occ. eigenvalues --   -0.59727  -0.51746  -0.47329  -0.42891  -0.42524
 Alpha  occ. eigenvalues --   -0.40994  -0.35374  -0.34833  -0.33089  -0.24305
 Alpha  occ. eigenvalues --   -0.23644
 Alpha virt. eigenvalues --   -0.00832  -0.00241   0.09884   0.13857   0.14762
 Alpha virt. eigenvalues --    0.15700   0.17300   0.18594   0.19767   0.28670
 Alpha virt. eigenvalues --    0.29159   0.30287   0.31682   0.46704   0.49045

 Mulliken charges:
               1
     1  C   -0.073882
     2  C   -0.085643
     3  C   -0.079036
     4  C   -0.099054
     5  C   -0.077001
     6  C   -0.104711
     7  H    0.083856
     8  H    0.087497
     9  H    0.097648
    10  H    0.075461
    11  H    0.092741
    12  H    0.082123
 Sum of Mulliken charges =  -0.00000

 Dipole moment (field-independent basis, Debye):
    X=             -0.0775    Y=              0.0993    Z=              0.2364  Tot=              0.2679
 Quadrupole moment (field-independent basis, Debye-Ang):
   XX=            -31.2204   YY=            -31.6126   ZZ=            -38.4944
   XY=              0.0055   XZ=              0.3009   YZ=              0.4361

 Normal termination of Gaussian 16 at Fri Nov 10 20:39:59 2023.
