 Gaussian 16, Revision B.01,
 Gaussian 16:  EM64L-G16RevB.01 20-Dec-2017

 ---------------------------------
 # TD=(NStates=1) B3LYP/6-31G(d,p)
 ---------------------------------

 -------
 EMISPCT
 -------
 Symbolic Z-matrix:
 Charge =  0 Multiplicity = 1

                         Standard orientation:
 ---------------------------------------------------------------------
 Center     Atomic      Atomic             Coordinates (Angstroms)
 Number     Number       Type             X           Y           Z
 ---------------------------------------------------------------------
      1          6           0        1.150059    0.824912    0.039469
      2          6           0        1.374281   -0.643754   -0.059093
      3          6           0        0.139895   -1.370604   -0.016044
      4          6           0       -1.198055   -0.829938    0.065193
      5          6           0       -1.301832    0.575852   -0.046329
      6          6           0       -0.136427    1.443999   -0.052500
      7          1           0        2.006003    1.481624    0.302362
      8          1           0       -0.372447    2.533303    0.000324
      9          1           0       -2.184586    0.998507    0.049732
     10          1           0       -2.040454   -1.507998    0.077549
     11          1           0        0.104775   -2.570680    0.006583
     12          1           0        2.319188   -0.937561   -0.020725
 ---------------------------------------------------------------------

 SCF Done:  E(RB3LYP) =  -232.206342805     A.U. after   13 cycles

 Excitation energies and oscillator strengths:

 Excited State   1:      Singlet-A      5.0539 eV  245.32 nm  f=0.0018  <S**2>=0.000
      20 -> 22         0.25948
      20 -> 23         0.39205
      21 -> 22         0.46618
      21 -> 23        -0.24767
 This state for optimization and/or second-order correction.
 Total Energy, E(TD-HF/TD-DFT) =  -232.020616206
 Copying the excited state density for this state as the 1-particle RhoCI density.

 The electronic state is 1-A.
 Alpha  occ. eigenvalues --  -10.21033 -10.20481 -10.20085 -10.19909 -10.19590
 Alpha  occ. eigenvalues --  -10.18658  -0.82769  -0.73792  -0.72605  -0.60834
 Alpha  occ. eigenvalues --   -0.58542  -0.51217  -0.47585  -0.42961  -0.41941
 Alpha  occ. eigenvalues --   -0.40612  -0.34963  -0.34514  -0.32352  -0.24263
 Alpha  occ. eigenvalues --   -0.23962
 Alpha virt. eigenvalues --   -0.01354  -0.00541   0.08917   0.12934   0.13112
 Alpha virt. eigenvalues --    0.15033   0.16455   0.17907   0.19664   0.25661
 Alpha virt. eigenvalues --    0.27481   0.30609   0.31528   0.44874   0.46039

 Mulliken charges:
               1
     1  C   -0.118516
     2  C   -0.057915
     3  C   -0.100305
     4  C   -0.072272
     5  C   -0.079128
     6  C   -0.082373
     7  H    0.086638
     8  H    0.093797
     9  H    0.077834
    10  H    0.095568
    11  H    0.066210
    12  H    0.090461
 Sum of Mulliken charges =  -0.00000

 Dipole moment (field-independent basis, Debye):
    X=             -0.0999    Y=              0.1297    Z=              0.2529  Tot=              0.3012
 Quadrupole moment (field-independent basis, Debye-Ang):
   XX=            -30.8397   YY=            -31.9502   ZZ=            -38.9703
   XY=              0.0164   XZ=              0.2093   YZ=              0.3217

 Normal termination of Gaussian 16 at Fri Nov 10 21:28:12 2023.
