 Gaussian 16, Revision B.01,
 Gaussian 16:  EM64L-G16RevB.01 20-Dec-2017

 ---------------------------------
 # TD=(NStates=1) B3LYP/6-31G(d,p)
 ---------------------------------

 -------
 EMISPCT
 -------
 Symbolic Z-matrix:
 Charge =  0 Multiplicity = 1

                         Standard orientation:
 ---------------------------------------------------------------------
 Center     Atomic      Atomic             Coordinates (Angstroms)
 Number     Number       Type             X           Y           Z
 ---------------------------------------------------------------------
      1          6           0       -1.294432   -0.580348    0.039819
      2          6           0       -0.137074   -1.368980   -0.135088
      3          6           0        1.174965   -0.868280    0.086488
      4          6           0        1.296064    0.626632   -0.054052
      5          6           0        0.107941    1.449831   -0.118669
      6          6           0       -1.174104    0.793374    0.063971
      7          1           0       -2.298497   -1.225511    0.191298
      8          1           0       -2.191643    1.336924    0.050625
      9          1           0        0.360245    2.509895    0.148483
     10          1           0        2.288521    1.127999    0.215703
     11          1           0        2.139595   -1.610881    0.242977
     12          1           0       -0.138389   -2.451802   -0.143901
 ---------------------------------------------------------------------

 SCF Done:  E(RB3LYP) =  -232.196019311     A.U. after   13 cycles

 Excitation energies and oscillator strengths:

 Excited State   1:      Singlet-A      4.9993 eV  248.00 nm  f=0.0009  <S**2>=0.000
      20 -> 22         0.26524
      20 -> 23         0.40134
      21 -> 22         0.45104
      21 -> 23        -0.25444
 This state for optimization and/or second-order correction.
 Total Energy, E(TD-HF/TD-DFT) =  -232.012297808
 Copying the excited state density for this state as the 1-particle RhoCI density.

 The electronic state is 1-A.
 Alpha  occ. eigenvalues --  -10.21654 -10.21059 -10.20719 -10.20625 -10.20540
 Alpha  occ. eigenvalues --  -10.19491  -0.83380  -0.73266  -0.72727  -0.58957
 Alpha  occ. eigenvalues --   -0.58292  -0.49946  -0.44843  -0.43159  -0.40548
 Alpha  occ. eigenvalues --   -0.40421  -0.35413  -0.33271  -0.32972  -0.24412
 Alpha  occ. eigenvalues --   -0.24206
 Alpha virt. eigenvalues --   -0.01654  -0.01070   0.06443   0.10898   0.12368
 Alpha virt. eigenvalues --    0.12746   0.15028   0.17299   0.17684   0.26355
 Alpha virt. eigenvalues --    0.27865   0.29792   0.30698   0.45475   0.48458

 Mulliken charges:
               1
     1  C   -0.069147
     2  C   -0.083188
     3  C   -0.089569
     4  C   -0.109444
     5  C   -0.097235
     6  C   -0.098316
     7  H    0.092004
     8  H    0.089173
     9  H    0.100627
    10  H    0.089783
    11  H    0.090206
    12  H    0.085106
 Sum of Mulliken charges =  -0.00000

 Dipole moment (field-independent basis, Debye):
    X=              0.0302    Y=             -0.2173    Z=              0.4325  Tot=              0.4850
 Quadrupole moment (field-independent basis, Debye-Ang):
   XX=            -31.8056   YY=            -31.8332   ZZ=            -39.2204
   XY=              0.2621   XZ=              0.5158   YZ=              0.3739

 Normal termination of Gaussian 16 at Fri Nov 10 19:50:15 2023.
