 Gaussian 16, Revision B.01,
 Gaussian 16:  EM64L-G16RevB.01 20-Dec-2017

 ---------------------------------
 # TD=(NStates=1) B3LYP/6-31G(d,p)
 ---------------------------------

 -------
 EMISPCT
 -------
 Symbolic Z-matrix:
 Charge =  0 Multiplicity = 1

                         Standard orientation:
 ---------------------------------------------------------------------
 Center     Atomic      Atomic             Coordinates (Angstroms)
 Number     Number       Type             X           Y           Z
 ---------------------------------------------------------------------
      1          6           0        1.413151   -0.354348   -0.014615
      2          6           0        0.987780    0.997961    0.031874
      3          6           0       -0.377272    1.329218   -0.023656
      4          6           0       -1.425426    0.305904   -0.079329
      5          6           0       -0.999966   -0.961922    0.138890
      6          6           0        0.392461   -1.313701   -0.021935
      7          1           0        2.543269   -0.640412    0.033571
      8          1           0        0.691440   -2.396157   -0.213868
      9          1           0       -1.788827   -1.930205   -0.000505
     10          1           0       -2.388128    0.636743   -0.130666
     11          1           0       -0.648422    2.487138    0.159834
     12          1           0        1.646297    1.824220   -0.035746
 ---------------------------------------------------------------------

 SCF Done:  E(RB3LYP) =  -232.207134093     A.U. after   13 cycles

 Excitation energies and oscillator strengths:

 Excited State   1:      Singlet-A      5.2173 eV  237.64 nm  f=0.0046  <S**2>=0.000
      20 -> 22        -0.41914
      20 -> 23         0.11661
      21 -> 22         0.17411
      21 -> 23         0.52902
 This state for optimization and/or second-order correction.
 Total Energy, E(TD-HF/TD-DFT) =  -232.015402596
 Copying the excited state density for this state as the 1-particle RhoCI density.

 The electronic state is 1-A.
 Alpha  occ. eigenvalues --  -10.20817 -10.20480 -10.20301 -10.20138 -10.19236
 Alpha  occ. eigenvalues --  -10.19054  -0.84220  -0.74566  -0.72675  -0.59709
 Alpha  occ. eigenvalues --   -0.58431  -0.51104  -0.45120  -0.43712  -0.41631
 Alpha  occ. eigenvalues --   -0.39756  -0.35600  -0.34501  -0.32466  -0.25484
 Alpha  occ. eigenvalues --   -0.23677
 Alpha virt. eigenvalues --   -0.01008  -0.00429   0.06636   0.11511   0.12718
 Alpha virt. eigenvalues --    0.14313   0.16593   0.17439   0.18138   0.26890
 Alpha virt. eigenvalues --    0.29264   0.30520   0.32437   0.47061   0.48620

 Mulliken charges:
               1
     1  C   -0.078929
     2  C   -0.077206
     3  C   -0.105662
     4  C   -0.063765
     5  C   -0.083613
     6  C   -0.098361
     7  H    0.092269
     8  H    0.089803
     9  H    0.064672
    10  H    0.093907
    11  H    0.078661
    12  H    0.088224
 Sum of Mulliken charges =  -0.00000

 Dipole moment (field-independent basis, Debye):
    X=              0.0857    Y=              0.1207    Z=             -0.1326  Tot=              0.1988
 Quadrupole moment (field-independent basis, Debye-Ang):
   XX=            -31.5657   YY=            -32.1188   ZZ=            -38.9396
   XY=             -0.3971   XZ=              0.1449   YZ=              0.6141

 Normal termination of Gaussian 16 at Fri Nov 10 22:21:27 2023.
