 Gaussian 16, Revision B.01,
 Gaussian 16:  EM64L-G16RevB.01 20-Dec-2017

 ---------------------------------
 # TD=(NStates=1) B3LYP/6-31G(d,p)
 ---------------------------------

 -------
 EMISPCT
 -------
 Symbolic Z-matrix:
 Charge =  0 Multiplicity = 1

                         Standard orientation:
 ---------------------------------------------------------------------
 Center     Atomic      Atomic             Coordinates (Angstroms)
 Number     Number       Type             X           Y           Z
 ---------------------------------------------------------------------
      1          6           0        0.533868   -1.360485    0.067279
      2          6           0       -0.900029   -1.092288    0.018119
      3          6           0       -1.413428    0.212621   -0.102145
      4          6           0       -0.544727    1.355565    0.072459
      5          6           0        0.914064    1.096400   -0.024993
      6          6           0        1.428915   -0.203830   -0.062498
      7          1           0        0.717595   -2.280273    0.240005
      8          1           0        2.517104   -0.449299   -0.229152
      9          1           0        1.607225    1.947180    0.021147
     10          1           0       -0.862751    2.373617    0.381088
     11          1           0       -2.567928    0.367359   -0.274145
     12          1           0       -1.523228   -2.006487    0.051737
 ---------------------------------------------------------------------

 SCF Done:  E(RB3LYP) =  -232.207428726     A.U. after   13 cycles

 Excitation energies and oscillator strengths:

 Excited State   1:      Singlet-A      4.9765 eV  249.14 nm  f=0.0019  <S**2>=0.000
      20 -> 22         0.51270
      21 -> 22        -0.15230
      21 -> 23        -0.45459
 This state for optimization and/or second-order correction.
 Total Energy, E(TD-HF/TD-DFT) =  -232.024546361
 Copying the excited state density for this state as the 1-particle RhoCI density.

 The electronic state is 1-A.
 Alpha  occ. eigenvalues --  -10.20816 -10.20733 -10.20351 -10.20043 -10.19708
 Alpha  occ. eigenvalues --  -10.18822  -0.82655  -0.73248  -0.72862  -0.60515
 Alpha  occ. eigenvalues --   -0.58316  -0.50444  -0.47228  -0.43148  -0.40991
 Alpha  occ. eigenvalues --   -0.40295  -0.36672  -0.34271  -0.31724  -0.24576
 Alpha  occ. eigenvalues --   -0.23301
 Alpha virt. eigenvalues --   -0.02071   0.00020   0.08976   0.12061   0.13469
 Alpha virt. eigenvalues --    0.15022   0.15588   0.16822   0.19553   0.27006
 Alpha virt. eigenvalues --    0.27655   0.28925   0.31636   0.47445   0.48919

 Mulliken charges:
               1
     1  C   -0.058032
     2  C   -0.094771
     3  C   -0.091100
     4  C   -0.100640
     5  C   -0.095925
     6  C   -0.089961
     7  H    0.074121
     8  H    0.089640
     9  H    0.091607
    10  H    0.102079
    11  H    0.084752
    12  H    0.088231
 Sum of Mulliken charges =  -0.00000

 Dipole moment (field-independent basis, Debye):
    X=              0.0184    Y=             -0.0770    Z=              0.1597  Tot=              0.1783
 Quadrupole moment (field-independent basis, Debye-Ang):
   XX=            -32.0332   YY=            -30.8454   ZZ=            -38.8924
   XY=              0.0842   XZ=             -0.0840   YZ=              0.2696

 Normal termination of Gaussian 16 at Fri Nov 10 21:55:53 2023.
