 Gaussian 16, Revision B.01,
 Gaussian 16:  EM64L-G16RevB.01 20-Dec-2017

 ---------------------------------
 # TD=(NStates=1) B3LYP/6-31G(d,p)
 ---------------------------------

 -------
 EMISPCT
 -------
 Symbolic Z-matrix:
 Charge =  0 Multiplicity = 1

                         Standard orientation:
 ---------------------------------------------------------------------
 Center     Atomic      Atomic             Coordinates (Angstroms)
 Number     Number       Type             X           Y           Z
 ---------------------------------------------------------------------
      1          6           0        0.895913   -1.127286   -0.132532
      2          6           0        1.473599    0.177893    0.034365
      3          6           0        0.522758    1.328490   -0.031539
      4          6           0       -0.884982    1.106947    0.058948
      5          6           0       -1.437690   -0.224716   -0.020516
      6          6           0       -0.556748   -1.280450    0.088795
      7          1           0        1.490692   -2.006748   -0.194841
      8          1           0       -0.937503   -2.350824    0.196883
      9          1           0       -2.411070   -0.380843   -0.139429
     10          1           0       -1.557287    1.998665   -0.085019
     11          1           0        0.735430    2.391494   -0.176237
     12          1           0        2.602635    0.462989    0.413511
 ---------------------------------------------------------------------

 SCF Done:  E(RB3LYP) =  -232.197577219     A.U. after   13 cycles

 Excitation energies and oscillator strengths:

 Excited State   1:      Singlet-A      4.7545 eV  260.77 nm  f=0.0025  <S**2>=0.000
      20 -> 22        -0.24626
      20 -> 23         0.36395
      21 -> 22         0.48792
      21 -> 23         0.26134
 This state for optimization and/or second-order correction.
 Total Energy, E(TD-HF/TD-DFT) =  -232.022853045
 Copying the excited state density for this state as the 1-particle RhoCI density.

 The electronic state is 1-A.
 Alpha  occ. eigenvalues --  -10.22050 -10.20409 -10.20158 -10.20038 -10.19754
 Alpha  occ. eigenvalues --  -10.18514  -0.82841  -0.73343  -0.72687  -0.59447
 Alpha  occ. eigenvalues --   -0.58635  -0.51113  -0.46062  -0.42559  -0.41893
 Alpha  occ. eigenvalues --   -0.40286  -0.35049  -0.34296  -0.33334  -0.23878
 Alpha  occ. eigenvalues --   -0.23244
 Alpha virt. eigenvalues --   -0.01789  -0.01022   0.07854   0.11937   0.13327
 Alpha virt. eigenvalues --    0.13837   0.16057   0.17432   0.19300   0.26956
 Alpha virt. eigenvalues --    0.27903   0.30082   0.31167   0.45265   0.46920

 Mulliken charges:
               1
     1  C   -0.094551
     2  C   -0.101098
     3  C   -0.093381
     4  C   -0.094569
     5  C   -0.057577
     6  C   -0.093288
     7  H    0.095538
     8  H    0.082955
     9  H    0.085140
    10  H    0.081625
    11  H    0.093181
    12  H    0.096025
 Sum of Mulliken charges =  -0.00000

 Dipole moment (field-independent basis, Debye):
    X=             -0.1023    Y=             -0.0674    Z=             -0.0168  Tot=              0.1237
 Quadrupole moment (field-independent basis, Debye-Ang):
   XX=            -31.7366   YY=            -31.4211   ZZ=            -38.8962
   XY=             -0.0574   XZ=              0.8034   YZ=             -0.2986

 Normal termination of Gaussian 16 at Fri Nov 10 21:00:05 2023.
