 Gaussian 16, Revision B.01,
 Gaussian 16:  EM64L-G16RevB.01 20-Dec-2017

 ---------------------------------
 # TD=(NStates=1) B3LYP/6-31G(d,p)
 ---------------------------------

 -------
 EMISPCT
 -------
 Symbolic Z-matrix:
 Charge =  0 Multiplicity = 1

                         Standard orientation:
 ---------------------------------------------------------------------
 Center     Atomic      Atomic             Coordinates (Angstroms)
 Number     Number       Type             X           Y           Z
 ---------------------------------------------------------------------
      1          6           0       -0.721605   -1.217100    0.067456
      2          6           0        0.751477   -1.195383   -0.095295
      3          6           0        1.439124   -0.044488    0.013398
      4          6           0        0.769510    1.263839   -0.040765
      5          6           0       -0.733489    1.192650   -0.027434
      6          6           0       -1.425992   -0.012285   -0.009002
      7          1           0       -1.288956   -2.127565    0.088864
      8          1           0       -2.694824   -0.014823    0.096850
      9          1           0       -1.423099    2.145641    0.006444
     10          1           0        1.181407    2.155341    0.068740
     11          1           0        2.507573    0.100593    0.427755
     12          1           0        1.243751   -2.182587   -0.138804
 ---------------------------------------------------------------------

 SCF Done:  E(RB3LYP) =  -232.190933756     A.U. after   14 cycles

 Excitation energies and oscillator strengths:

 Excited State   1:      Singlet-A      5.0251 eV  246.73 nm  f=0.0010  <S**2>=0.000
      20 -> 22         0.53829
      21 -> 23        -0.45553
 This state for optimization and/or second-order correction.
 Total Energy, E(TD-HF/TD-DFT) =  -232.006263794
 Copying the excited state density for this state as the 1-particle RhoCI density.

 The electronic state is 1-A.
 Alpha  occ. eigenvalues --  -10.20692 -10.20587 -10.20293 -10.19964 -10.19911
 Alpha  occ. eigenvalues --  -10.19896  -0.83453  -0.74226  -0.72485  -0.61104
 Alpha  occ. eigenvalues --   -0.57496  -0.50304  -0.46421  -0.43627  -0.40521
 Alpha  occ. eigenvalues --   -0.40376  -0.35500  -0.35298  -0.31611  -0.24983
 Alpha  occ. eigenvalues --   -0.23387
 Alpha virt. eigenvalues --   -0.02248   0.00090   0.06849   0.10599   0.13703
 Alpha virt. eigenvalues --    0.14484   0.15882   0.17436   0.18151   0.27112
 Alpha virt. eigenvalues --    0.27232   0.29777   0.32533   0.47065   0.48133

 Mulliken charges:
               1
     1  C   -0.088695
     2  C   -0.095686
     3  C   -0.087276
     4  C   -0.086401
     5  C   -0.094894
     6  C   -0.067084
     7  H    0.092765
     8  H    0.071256
     9  H    0.080168
    10  H    0.089743
    11  H    0.094612
    12  H    0.091492
 Sum of Mulliken charges =  -0.00000

 Dipole moment (field-independent basis, Debye):
    X=              0.0235    Y=             -0.0302    Z=              0.3409  Tot=              0.3430
 Quadrupole moment (field-independent basis, Debye-Ang):
   XX=            -31.9289   YY=            -31.5449   ZZ=            -38.9533
   XY=              0.5126   XZ=              0.4971   YZ=              0.3247

 Normal termination of Gaussian 16 at Fri Nov 10 20:02:02 2023.
