 Gaussian 16, Revision B.01,
 Gaussian 16:  EM64L-G16RevB.01 20-Dec-2017

 ---------------------------------
 # TD=(NStates=1) B3LYP/6-31G(d,p)
 ---------------------------------

 -------
 EMISPCT
 -------
 Symbolic Z-matrix:
 Charge =  0 Multiplicity = 1

                         Standard orientation:
 ---------------------------------------------------------------------
 Center     Atomic      Atomic             Coordinates (Angstroms)
 Number     Number       Type             X           Y           Z
 ---------------------------------------------------------------------
      1          6           0        0.511229   -1.268582    0.002557
      2          6           0        1.519025   -0.188956    0.125904
      3          6           0        0.931182    1.045230   -0.066619
      4          6           0       -0.568496    1.270184   -0.060694
      5          6           0       -1.462951    0.186024    0.054252
      6          6           0       -0.893864   -1.085544   -0.122456
      7          1           0        0.752353   -2.211360   -0.082291
      8          1           0       -1.514466   -1.906717   -0.022536
      9          1           0       -2.576835    0.392955    0.574296
     10          1           0       -0.951190    2.353790   -0.165169
     11          1           0        1.477842    2.024954    0.066763
     12          1           0        2.595553   -0.403754    0.031267
 ---------------------------------------------------------------------

 SCF Done:  E(RB3LYP) =  -232.187217614     A.U. after   13 cycles

 Excitation energies and oscillator strengths:

 Excited State   1:      Singlet-A      4.9260 eV  251.69 nm  f=0.0051  <S**2>=0.000
      20 -> 22         0.38485
      20 -> 23        -0.21222
      21 -> 22         0.32482
      21 -> 23         0.44835
 This state for optimization and/or second-order correction.
 Total Energy, E(TD-HF/TD-DFT) =  -232.006189945
 Copying the excited state density for this state as the 1-particle RhoCI density.

 The electronic state is 1-A.
 Alpha  occ. eigenvalues --  -10.20838 -10.20606 -10.20496 -10.20323 -10.18919
 Alpha  occ. eigenvalues --  -10.18710  -0.83356  -0.74309  -0.72451  -0.59920
 Alpha  occ. eigenvalues --   -0.58680  -0.50717  -0.45997  -0.42940  -0.42323
 Alpha  occ. eigenvalues --   -0.39541  -0.35974  -0.33387  -0.33102  -0.24943
 Alpha  occ. eigenvalues --   -0.23153
 Alpha virt. eigenvalues --   -0.01696  -0.00861   0.07328   0.11532   0.13374
 Alpha virt. eigenvalues --    0.14704   0.16467   0.17096   0.19245   0.26199
 Alpha virt. eigenvalues --    0.28628   0.30362   0.30834   0.45875   0.48146

 Mulliken charges:
               1
     1  C   -0.083011
     2  C   -0.084927
     3  C   -0.092182
     4  C   -0.098605
     5  C   -0.083484
     6  C   -0.088934
     7  H    0.077859
     8  H    0.087614
     9  H    0.088332
    10  H    0.088404
    11  H    0.084025
    12  H    0.104909
 Sum of Mulliken charges =  -0.00000

 Dipole moment (field-independent basis, Debye):
    X=              0.0539    Y=             -0.1172    Z=              0.2344  Tot=              0.2676
 Quadrupole moment (field-independent basis, Debye-Ang):
   XX=            -31.4879   YY=            -31.8919   ZZ=            -38.7660
   XY=             -0.1829   XZ=             -0.8808   YZ=              0.1420

 Normal termination of Gaussian 16 at Fri Nov 10 20:33:01 2023.
