 Gaussian 16, Revision B.01,
 Gaussian 16:  EM64L-G16RevB.01 20-Dec-2017

 ---------------------------------
 # TD=(NStates=1) B3LYP/6-31G(d,p)
 ---------------------------------

 -------
 EMISPCT
 -------
 Symbolic Z-matrix:
 Charge =  0 Multiplicity = 1

                         Standard orientation:
 ---------------------------------------------------------------------
 Center     Atomic      Atomic             Coordinates (Angstroms)
 Number     Number       Type             X           Y           Z
 ---------------------------------------------------------------------
      1          6           0       -0.284543    1.374691    0.090921
      2          6           0        1.062616    0.885491   -0.070463
      3          6           0        1.374102   -0.436010   -0.052374
      4          6           0        0.314321   -1.318020    0.107623
      5          6           0       -1.046674   -0.933552   -0.105930
      6          6           0       -1.374897    0.488137   -0.017462
      7          1           0       -0.518609    2.457041    0.162331
      8          1           0       -2.437127    0.529639    0.016516
      9          1           0       -1.750336   -1.777198    0.044795
     10          1           0        0.242606   -2.411834    0.024371
     11          1           0        2.430652   -0.737482    0.230408
     12          1           0        1.763264    1.575409   -0.192313
 ---------------------------------------------------------------------

 SCF Done:  E(RB3LYP) =  -232.203944870     A.U. after   13 cycles

 Excitation energies and oscillator strengths:

 Excited State   1:      Singlet-A      5.2041 eV  238.24 nm  f=0.0013  <S**2>=0.000
      20 -> 22         0.44257
      20 -> 23         0.16215
      21 -> 22        -0.20514
      21 -> 23         0.48510
 This state for optimization and/or second-order correction.
 Total Energy, E(TD-HF/TD-DFT) =  -232.012695889
 Copying the excited state density for this state as the 1-particle RhoCI density.

 The electronic state is 1-A.
 Alpha  occ. eigenvalues --  -10.20127 -10.19659 -10.19304 -10.19162 -10.18717
 Alpha  occ. eigenvalues --  -10.18432  -0.84327  -0.74431  -0.73417  -0.60302
 Alpha  occ. eigenvalues --   -0.59689  -0.51310  -0.46274  -0.44124  -0.41884
 Alpha  occ. eigenvalues --   -0.40178  -0.35987  -0.34663  -0.31434  -0.25049
 Alpha  occ. eigenvalues --   -0.23993
 Alpha virt. eigenvalues --   -0.01028  -0.00562   0.08622   0.13291   0.14073
 Alpha virt. eigenvalues --    0.14956   0.15894   0.18689   0.20129   0.27399
 Alpha virt. eigenvalues --    0.29055   0.30301   0.31871   0.46534   0.48008

 Mulliken charges:
               1
     1  C   -0.100932
     2  C   -0.067024
     3  C   -0.090275
     4  C   -0.079480
     5  C   -0.118927
     6  C   -0.075069
     7  H    0.089227
     8  H    0.097177
     9  H    0.088169
    10  H    0.081597
    11  H    0.092119
    12  H    0.083417
 Sum of Mulliken charges =  -0.00000

 Dipole moment (field-independent basis, Debye):
    X=             -0.0946    Y=              0.0922    Z=              0.1785  Tot=              0.2220
 Quadrupole moment (field-independent basis, Debye-Ang):
   XX=            -31.4584   YY=            -32.0375   ZZ=            -38.5855
   XY=              0.9415   XZ=              0.0072   YZ=             -0.1829

 Normal termination of Gaussian 16 at Fri Nov 10 23:03:24 2023.
