 Gaussian 16, Revision B.01,
 Gaussian 16:  EM64L-G16RevB.01 20-Dec-2017

 ---------------------------------
 # TD=(NStates=1) B3LYP/6-31G(d,p)
 ---------------------------------

 -------
 EMISPCT
 -------
 Symbolic Z-matrix:
 Charge =  0 Multiplicity = 1

                         Standard orientation:
 ---------------------------------------------------------------------
 Center     Atomic      Atomic             Coordinates (Angstroms)
 Number     Number       Type             X           Y           Z
 ---------------------------------------------------------------------
      1          6           0       -1.320124    0.563007    0.065438
      2          6           0       -0.177120    1.355412    0.080046
      3          6           0        1.181046    0.820412   -0.140342
      4          6           0        1.315474   -0.547943    0.047533
      5          6           0        0.154870   -1.371233    0.003300
      6          6           0       -1.111545   -0.830224   -0.122814
      7          1           0       -2.314803    0.996648    0.138114
      8          1           0       -2.011174   -1.424157   -0.381224
      9          1           0        0.102649   -2.381571    0.503150
     10          1           0        2.252366   -1.036482    0.189005
     11          1           0        2.058567    1.462089   -0.224945
     12          1           0       -0.343206    2.446887    0.176937
 ---------------------------------------------------------------------

 SCF Done:  E(RB3LYP) =  -232.225152093     A.U. after   13 cycles

 Excitation energies and oscillator strengths:

 Excited State   1:      Singlet-A      5.0747 eV  244.32 nm  f=0.0028  <S**2>=0.000
      20 -> 22         0.46785
      20 -> 23         0.13487
      21 -> 22         0.25706
      21 -> 23        -0.44309
 This state for optimization and/or second-order correction.
 Total Energy, E(TD-HF/TD-DFT) =  -232.038660405
 Copying the excited state density for this state as the 1-particle RhoCI density.

 The electronic state is 1-A.
 Alpha  occ. eigenvalues --  -10.19830 -10.19776 -10.19178 -10.19077 -10.19049
 Alpha  occ. eigenvalues --  -10.18899  -0.84126  -0.74232  -0.73029  -0.59574
 Alpha  occ. eigenvalues --   -0.59161  -0.51076  -0.46263  -0.43229  -0.42433
 Alpha  occ. eigenvalues --   -0.40339  -0.36680  -0.34192  -0.32187  -0.24754
 Alpha  occ. eigenvalues --   -0.23397
 Alpha virt. eigenvalues --   -0.01539   0.00109   0.09204   0.12518   0.14099
 Alpha virt. eigenvalues --    0.15348   0.16811   0.17922   0.18381   0.27763
 Alpha virt. eigenvalues --    0.29818   0.30838   0.32034   0.46813   0.49227

 Mulliken charges:
               1
     1  C   -0.067850
     2  C   -0.105035
     3  C   -0.085247
     4  C   -0.087994
     5  C   -0.099117
     6  C   -0.094234
     7  H    0.092824
     8  H    0.087051
     9  H    0.092560
    10  H    0.091717
    11  H    0.091805
    12  H    0.083521
 Sum of Mulliken charges =  -0.00000

 Dipole moment (field-independent basis, Debye):
    X=             -0.1158    Y=              0.1592    Z=              0.2548  Tot=              0.3220
 Quadrupole moment (field-independent basis, Debye-Ang):
   XX=            -31.0477   YY=            -32.5828   ZZ=            -38.3550
   XY=              0.0733   XZ=              0.2796   YZ=             -0.5905

 Normal termination of Gaussian 16 at Fri Nov 10 22:13:54 2023.
