 Gaussian 16, Revision B.01,
 Gaussian 16:  EM64L-G16RevB.01 20-Dec-2017

 ---------------------------------
 # TD=(NStates=1) B3LYP/6-31G(d,p)
 ---------------------------------

 -------
 EMISPCT
 -------
 Symbolic Z-matrix:
 Charge =  0 Multiplicity = 1

                         Standard orientation:
 ---------------------------------------------------------------------
 Center     Atomic      Atomic             Coordinates (Angstroms)
 Number     Number       Type             X           Y           Z
 ---------------------------------------------------------------------
      1          6           0        1.457233   -0.086221   -0.004957
      2          6           0        0.811288    1.113945   -0.010424
      3          6           0       -0.663546    1.317709   -0.043525
      4          6           0       -1.415401    0.108926   -0.053976
      5          6           0       -0.776456   -1.127048    0.043275
      6          6           0        0.650590   -1.249125   -0.012769
      7          1           0        2.497710   -0.376382    0.180168
      8          1           0        0.842526   -2.377101   -0.127071
      9          1           0       -1.499722   -1.939047    0.050027
     10          1           0       -2.565957   -0.178393    0.150500
     11          1           0       -1.060146    2.221274    0.205225
     12          1           0        1.403346    2.180533    0.035399
 ---------------------------------------------------------------------

 SCF Done:  E(RB3LYP) =  -232.190230697     A.U. after   13 cycles

 Excitation energies and oscillator strengths:

 Excited State   1:      Singlet-A      5.2240 eV  237.34 nm  f=0.0033  <S**2>=0.000
      20 -> 22         0.47035
      20 -> 23         0.12475
      21 -> 22         0.22027
      21 -> 23        -0.46284
 This state for optimization and/or second-order correction.
 Total Energy, E(TD-HF/TD-DFT) =  -231.998254066
 Copying the excited state density for this state as the 1-particle RhoCI density.

 The electronic state is 1-A.
 Alpha  occ. eigenvalues --  -10.21370 -10.20130 -10.20128 -10.20071 -10.19975
 Alpha  occ. eigenvalues --  -10.18563  -0.84040  -0.74574  -0.72899  -0.60734
 Alpha  occ. eigenvalues --   -0.58258  -0.51410  -0.44900  -0.43791  -0.42073
 Alpha  occ. eigenvalues --   -0.39936  -0.35623  -0.33833  -0.31546  -0.25527
 Alpha  occ. eigenvalues --   -0.23717
 Alpha virt. eigenvalues --   -0.01843   0.00268   0.07023   0.10388   0.13174
 Alpha virt. eigenvalues --    0.14099   0.15322   0.17766   0.19550   0.26359
 Alpha virt. eigenvalues --    0.28850   0.30142   0.32125   0.46204   0.49109

 Mulliken charges:
               1
     1  C   -0.074586
     2  C   -0.108887
     3  C   -0.094572
     4  C   -0.074663
     5  C   -0.081217
     6  C   -0.098029
     7  H    0.104877
     8  H    0.093711
     9  H    0.083202
    10  H    0.076048
    11  H    0.099132
    12  H    0.074984
 Sum of Mulliken charges =  -0.00000

 Dipole moment (field-independent basis, Debye):
    X=             -0.0357    Y=             -0.2121    Z=              0.3056  Tot=              0.3737
 Quadrupole moment (field-independent basis, Debye-Ang):
   XX=            -32.3543   YY=            -31.5386   ZZ=            -38.9196
   XY=              0.2041   XZ=             -0.1961   YZ=              0.5628

 Normal termination of Gaussian 16 at Fri Nov 10 21:16:59 2023.
