 Gaussian 16, Revision B.01,
 Gaussian 16:  EM64L-G16RevB.01 20-Dec-2017

 ---------------------------------
 # TD=(NStates=1) B3LYP/6-31G(d,p)
 ---------------------------------

 -------
 EMISPCT
 -------
 Symbolic Z-matrix:
 Charge =  0 Multiplicity = 1

                         Standard orientation:
 ---------------------------------------------------------------------
 Center     Atomic      Atomic             Coordinates (Angstroms)
 Number     Number       Type             X           Y           Z
 ---------------------------------------------------------------------
      1          6           0       -1.394143   -0.407242    0.009085
      2          6           0       -0.384580   -1.336548    0.043407
      3          6           0        1.094606   -0.984732   -0.110354
      4          6           0        1.425123    0.363781    0.054801
      5          6           0        0.319053    1.392163    0.027740
      6          6           0       -1.047872    0.995020   -0.071523
      7          1           0       -2.522091   -0.858844    0.159477
      8          1           0       -1.800808    1.838608   -0.085579
      9          1           0        0.533278    2.536515   -0.048312
     10          1           0        2.586578    0.689615    0.339312
     11          1           0        1.749216   -1.782772   -0.306591
     12          1           0       -0.619286   -2.557784    0.222754
 ---------------------------------------------------------------------

 SCF Done:  E(RB3LYP) =  -232.184389993     A.U. after   13 cycles

 Excitation energies and oscillator strengths:

 Excited State   1:      Singlet-A      5.0077 eV  247.58 nm  f=0.0030  <S**2>=0.000
      20 -> 22        -0.40218
      20 -> 23        -0.22283
      21 -> 22        -0.34225
      21 -> 23         0.41354
 This state for optimization and/or second-order correction.
 Total Energy, E(TD-HF/TD-DFT) =  -232.000358644
 Copying the excited state density for this state as the 1-particle RhoCI density.

 The electronic state is 1-A.
 Alpha  occ. eigenvalues --  -10.22095 -10.21450 -10.21319 -10.20949 -10.20742
 Alpha  occ. eigenvalues --  -10.20460  -0.82699  -0.73452  -0.72030  -0.59067
 Alpha  occ. eigenvalues --   -0.57489  -0.49304  -0.45259  -0.42951  -0.40848
 Alpha  occ. eigenvalues --   -0.39342  -0.35465  -0.33958  -0.32101  -0.24760
 Alpha  occ. eigenvalues --   -0.23638
 Alpha virt. eigenvalues --   -0.01688  -0.00652   0.05929   0.09781   0.11898
 Alpha virt. eigenvalues --    0.13202   0.14294   0.15605   0.16579   0.24754
 Alpha virt. eigenvalues --    0.27748   0.29183   0.31536   0.45807   0.47437

 Mulliken charges:
               1
     1  C   -0.077242
     2  C   -0.090415
     3  C   -0.081073
     4  C   -0.094666
     5  C   -0.099326
     6  C   -0.093910
     7  H    0.087460
     8  H    0.095001
     9  H    0.092878
    10  H    0.086582
    11  H    0.100792
    12  H    0.073918
 Sum of Mulliken charges =  -0.00000

 Dipole moment (field-independent basis, Debye):
    X=              0.0866    Y=             -0.0335    Z=              0.1083  Tot=              0.1427
 Quadrupole moment (field-independent basis, Debye-Ang):
   XX=            -31.9633   YY=            -31.4208   ZZ=            -39.4186
   XY=             -0.4399   XZ=             -0.0850   YZ=             -0.0625

 Normal termination of Gaussian 16 at Fri Nov 10 22:52:15 2023.
