 Gaussian 16, Revision B.01,
 Gaussian 16:  EM64L-G16RevB.01 20-Dec-2017

 ---------------------------------
 # TD=(NStates=1) B3LYP/6-31G(d,p)
 ---------------------------------

 -------
 EMISPCT
 -------
 Symbolic Z-matrix:
 Charge =  0 Multiplicity = 1

                         Standard orientation:
 ---------------------------------------------------------------------
 Center     Atomic      Atomic             Coordinates (Angstroms)
 Number     Number       Type             X           Y           Z
 ---------------------------------------------------------------------
      1          6           0        0.479118   -1.292158    0.000886
      2          6           0        1.435866   -0.156562    0.027705
      3          6           0        0.851988    1.089646   -0.038819
      4          6           0       -0.625999    1.332661    0.006267
      5          6           0       -1.409694    0.125341    0.009587
      6          6           0       -0.803842   -1.127068   -0.041991
      7          1           0        0.989296   -2.210622   -0.044309
      8          1           0       -1.389607   -1.994111    0.011725
      9          1           0       -2.449655    0.267073    0.228497
     10          1           0       -0.912280    2.368031   -0.145034
     11          1           0        1.503274    1.956757    0.087253
     12          1           0        2.694352   -0.218292    0.080058
 ---------------------------------------------------------------------

 SCF Done:  E(RB3LYP) =  -232.205340363     A.U. after   13 cycles

 Excitation energies and oscillator strengths:

 Excited State   1:      Singlet-A      5.3645 eV  231.12 nm  f=0.0014  <S**2>=0.000
      20 -> 22         0.52998
      21 -> 23         0.46322
 This state for optimization and/or second-order correction.
 Total Energy, E(TD-HF/TD-DFT) =  -232.008197875
 Copying the excited state density for this state as the 1-particle RhoCI density.

 The electronic state is 1-A.
 Alpha  occ. eigenvalues --  -10.20691 -10.20255 -10.19487 -10.19149 -10.18453
 Alpha  occ. eigenvalues --  -10.17790  -0.84388  -0.74435  -0.73033  -0.60258
 Alpha  occ. eigenvalues --   -0.58792  -0.51410  -0.45786  -0.44055  -0.41830
 Alpha  occ. eigenvalues --   -0.40583  -0.36210  -0.33756  -0.32112  -0.25257
 Alpha  occ. eigenvalues --   -0.23907
 Alpha virt. eigenvalues --   -0.01397   0.00843   0.07489   0.12478   0.14140
 Alpha virt. eigenvalues --    0.15482   0.17283   0.18028   0.18627   0.26626
 Alpha virt. eigenvalues --    0.28371   0.30697   0.33487   0.46394   0.49180

 Mulliken charges:
               1
     1  C   -0.090888
     2  C   -0.089595
     3  C   -0.093003
     4  C   -0.094526
     5  C   -0.109495
     6  C   -0.045680
     7  H    0.085281
     8  H    0.085631
     9  H    0.090101
    10  H    0.101061
    11  H    0.078182
    12  H    0.082931
 Sum of Mulliken charges =  -0.00000

 Dipole moment (field-independent basis, Debye):
    X=             -0.0375    Y=             -0.0138    Z=              0.1183  Tot=              0.1249
 Quadrupole moment (field-independent basis, Debye-Ang):
   XX=            -31.6718   YY=            -31.4011   ZZ=            -38.6809
   XY=             -0.0764   XZ=             -0.1387   YZ=             -0.0780

 Normal termination of Gaussian 16 at Fri Nov 10 22:27:20 2023.
