 Gaussian 16, Revision B.01,
 Gaussian 16:  EM64L-G16RevB.01 20-Dec-2017

 ---------------------------------
 # TD=(NStates=1) B3LYP/6-31G(d,p)
 ---------------------------------

 -------
 EMISPCT
 -------
 Symbolic Z-matrix:
 Charge =  0 Multiplicity = 1

                         Standard orientation:
 ---------------------------------------------------------------------
 Center     Atomic      Atomic             Coordinates (Angstroms)
 Number     Number       Type             X           Y           Z
 ---------------------------------------------------------------------
      1          6           0        0.259952   -1.418270   -0.038793
      2          6           0       -1.042840   -0.964472   -0.003520
      3          6           0       -1.366208    0.420549   -0.061913
      4          6           0       -0.316481    1.428098    0.214057
      5          6           0        1.044800    0.982279   -0.090670
      6          6           0        1.351626   -0.458024   -0.024289
      7          1           0        0.764575   -2.359663    0.260715
      8          1           0        2.595128   -0.679761    0.265816
      9          1           0        1.893402    1.624646   -0.309657
     10          1           0       -0.524580    2.441109   -0.026676
     11          1           0       -2.336557    0.685648   -0.196797
     12          1           0       -1.977059   -1.652936    0.037369
 ---------------------------------------------------------------------

 SCF Done:  E(RB3LYP) =  -232.173868363     A.U. after   13 cycles

 Excitation energies and oscillator strengths:

 Excited State   1:      Singlet-A      4.6337 eV  267.57 nm  f=0.0132  <S**2>=0.000
      20 -> 22         0.19848
      20 -> 23         0.30788
      21 -> 22         0.55365
      21 -> 23        -0.24157
 This state for optimization and/or second-order correction.
 Total Energy, E(TD-HF/TD-DFT) =  -232.003581326
 Copying the excited state density for this state as the 1-particle RhoCI density.

 The electronic state is 1-A.
 Alpha  occ. eigenvalues --  -10.21632 -10.20518 -10.20382 -10.20329 -10.20240
 Alpha  occ. eigenvalues --  -10.19869  -0.82981  -0.73413  -0.72700  -0.59801
 Alpha  occ. eigenvalues --   -0.58697  -0.50544  -0.45475  -0.43704  -0.40882
 Alpha  occ. eigenvalues --   -0.40455  -0.34983  -0.33881  -0.32141  -0.24970
 Alpha  occ. eigenvalues --   -0.22963
 Alpha virt. eigenvalues --   -0.02571  -0.01411   0.06519   0.11186   0.12556
 Alpha virt. eigenvalues --    0.14030   0.15562   0.17659   0.18553   0.26265
 Alpha virt. eigenvalues --    0.28119   0.28680   0.30981   0.44660   0.47266

 Mulliken charges:
               1
     1  C   -0.079309
     2  C   -0.087361
     3  C   -0.083391
     4  C   -0.103920
     5  C   -0.088320
     6  C   -0.104464
     7  H    0.101560
     8  H    0.076009
     9  H    0.094904
    10  H    0.095949
    11  H    0.093205
    12  H    0.085136
 Sum of Mulliken charges =  -0.00000

 Dipole moment (field-independent basis, Debye):
    X=             -0.0378    Y=              0.1718    Z=             -0.0282  Tot=              0.1782
 Quadrupole moment (field-independent basis, Debye-Ang):
   XX=            -31.0517   YY=            -32.7315   ZZ=            -38.9875
   XY=             -0.0921   XZ=              0.6257   YZ=             -1.3282

 Normal termination of Gaussian 16 at Fri Nov 10 20:00:21 2023.
