 Gaussian 16, Revision B.01,
 Gaussian 16:  EM64L-G16RevB.01 20-Dec-2017

 ---------------------------------
 # TD=(NStates=1) B3LYP/6-31G(d,p)
 ---------------------------------

 -------
 EMISPCT
 -------
 Symbolic Z-matrix:
 Charge =  0 Multiplicity = 1

                         Standard orientation:
 ---------------------------------------------------------------------
 Center     Atomic      Atomic             Coordinates (Angstroms)
 Number     Number       Type             X           Y           Z
 ---------------------------------------------------------------------
      1          6           0       -1.350959   -0.454747   -0.077204
      2          6           0       -0.270799   -1.379666    0.033356
      3          6           0        1.117508   -0.914871    0.069296
      4          6           0        1.362475    0.455929   -0.063980
      5          6           0        0.259208    1.398979    0.098900
      6          6           0       -1.121062    0.922099   -0.029556
      7          1           0       -2.249687   -0.928952   -0.212097
      8          1           0       -1.984211    1.517472    0.309125
      9          1           0        0.475156    2.440641   -0.144767
     10          1           0        2.391633    0.820312   -0.194107
     11          1           0        1.927852   -1.564299   -0.067249
     12          1           0       -0.538965   -2.451516    0.124217
 ---------------------------------------------------------------------

 SCF Done:  E(RB3LYP) =  -232.222598295     A.U. after   13 cycles

 Excitation energies and oscillator strengths:

 Excited State   1:      Singlet-A      5.0053 eV  247.70 nm  f=0.0008  <S**2>=0.000
      20 -> 22         0.49128
      21 -> 22         0.12076
      21 -> 23         0.48748
 This state for optimization and/or second-order correction.
 Total Energy, E(TD-HF/TD-DFT) =  -232.038655957
 Copying the excited state density for this state as the 1-particle RhoCI density.

 The electronic state is 1-A.
 Alpha  occ. eigenvalues --  -10.20043 -10.20036 -10.19943 -10.19772 -10.19337
 Alpha  occ. eigenvalues --  -10.18695  -0.83141  -0.74320  -0.72368  -0.60185
 Alpha  occ. eigenvalues --   -0.58991  -0.51037  -0.46911  -0.42827  -0.42280
 Alpha  occ. eigenvalues --   -0.40202  -0.35425  -0.34366  -0.33004  -0.24885
 Alpha  occ. eigenvalues --   -0.23465
 Alpha virt. eigenvalues --   -0.02028  -0.00398   0.09333   0.12905   0.14345
 Alpha virt. eigenvalues --    0.15363   0.16477   0.18394   0.18916   0.27089
 Alpha virt. eigenvalues --    0.28846   0.29561   0.30305   0.46577   0.48210

 Mulliken charges:
               1
     1  C   -0.060190
     2  C   -0.099429
     3  C   -0.079513
     4  C   -0.089352
     5  C   -0.109382
     6  C   -0.106459
     7  H    0.086539
     8  H    0.097287
     9  H    0.092681
    10  H    0.090745
    11  H    0.089733
    12  H    0.087339
 Sum of Mulliken charges =  -0.00000

 Dipole moment (field-independent basis, Debye):
    X=             -0.0057    Y=             -0.2500    Z=             -0.1312  Tot=              0.2823
 Quadrupole moment (field-independent basis, Debye-Ang):
   XX=            -31.0714   YY=            -32.0700   ZZ=            -38.7127
   XY=              0.3963   XZ=             -0.7571   YZ=             -0.0517

 Normal termination of Gaussian 16 at Fri Nov 10 21:18:37 2023.
