 Gaussian 16, Revision B.01,
 Gaussian 16:  EM64L-G16RevB.01 20-Dec-2017

 ---------------------------------
 # TD=(NStates=1) B3LYP/6-31G(d,p)
 ---------------------------------

 -------
 EMISPCT
 -------
 Symbolic Z-matrix:
 Charge =  0 Multiplicity = 1

                         Standard orientation:
 ---------------------------------------------------------------------
 Center     Atomic      Atomic             Coordinates (Angstroms)
 Number     Number       Type             X           Y           Z
 ---------------------------------------------------------------------
      1          6           0       -0.070904    1.454660   -0.080182
      2          6           0       -1.253881    0.619565    0.107364
      3          6           0       -1.192785   -0.770245   -0.026150
      4          6           0        0.055687   -1.405327   -0.039445
      5          6           0        1.343134   -0.640147   -0.033382
      6          6           0        1.129374    0.719650    0.016721
      7          1           0       -0.065440    2.556453   -0.196933
      8          1           0        2.065551    1.458081    0.219997
      9          1           0        2.328753   -1.220136    0.211804
     10          1           0       -0.023746   -2.493848    0.000160
     11          1           0       -2.222697   -1.220759    0.005261
     12          1           0       -2.146171    1.051267    0.090154
 ---------------------------------------------------------------------

 SCF Done:  E(RB3LYP) =  -232.204150537     A.U. after   13 cycles

 Excitation energies and oscillator strengths:

 Excited State   1:      Singlet-A      5.1345 eV  241.47 nm  f=0.0068  <S**2>=0.000
      20 -> 22         0.50821
      20 -> 23        -0.11830
      21 -> 22        -0.24547
      21 -> 23        -0.40774
 This state for optimization and/or second-order correction.
 Total Energy, E(TD-HF/TD-DFT) =  -232.015461511
 Copying the excited state density for this state as the 1-particle RhoCI density.

 The electronic state is 1-A.
 Alpha  occ. eigenvalues --  -10.21010 -10.20180 -10.20174 -10.20033 -10.19298
 Alpha  occ. eigenvalues --  -10.18527  -0.83773  -0.74130  -0.72888  -0.60928
 Alpha  occ. eigenvalues --   -0.57675  -0.50851  -0.46285  -0.43152  -0.41514
 Alpha  occ. eigenvalues --   -0.40525  -0.35418  -0.34872  -0.31755  -0.24989
 Alpha  occ. eigenvalues --   -0.23604
 Alpha virt. eigenvalues --   -0.02032   0.00702   0.07542   0.12301   0.12810
 Alpha virt. eigenvalues --    0.14675   0.16052   0.16745   0.19797   0.26626
 Alpha virt. eigenvalues --    0.28241   0.30900   0.32778   0.44514   0.46831

 Mulliken charges:
               1
     1  C   -0.085415
     2  C   -0.079632
     3  C   -0.071590
     4  C   -0.114391
     5  C   -0.087568
     6  C   -0.080490
     7  H    0.100122
     8  H    0.060990
     9  H    0.104063
    10  H    0.086833
    11  H    0.090916
    12  H    0.076162
 Sum of Mulliken charges =  -0.00000

 Dipole moment (field-independent basis, Debye):
    X=             -0.2626    Y=              0.0488    Z=              0.1940  Tot=              0.3301
 Quadrupole moment (field-independent basis, Debye-Ang):
   XX=            -31.7549   YY=            -31.5185   ZZ=            -38.8875
   XY=             -0.3858   XZ=              0.5667   YZ=             -0.4127

 Normal termination of Gaussian 16 at Fri Nov 10 22:01:51 2023.
