 Gaussian 16, Revision B.01,
 Gaussian 16:  EM64L-G16RevB.01 20-Dec-2017

 ---------------------------------
 # TD=(NStates=1) B3LYP/6-31G(d,p)
 ---------------------------------

 -------
 EMISPCT
 -------
 Symbolic Z-matrix:
 Charge =  0 Multiplicity = 1

                         Standard orientation:
 ---------------------------------------------------------------------
 Center     Atomic      Atomic             Coordinates (Angstroms)
 Number     Number       Type             X           Y           Z
 ---------------------------------------------------------------------
      1          6           0        0.742293    1.288390   -0.059079
      2          6           0       -0.751523    1.188644   -0.006323
      3          6           0       -1.474204   -0.002905   -0.038694
      4          6           0       -0.733885   -1.239293   -0.055125
      5          6           0        0.760205   -1.233560    0.019220
      6          6           0        1.443865    0.008648   -0.022699
      7          1           0        1.204998    2.358612   -0.029439
      8          1           0        2.479595   -0.049835    0.229773
      9          1           0        1.189876   -2.253233    0.094946
     10          1           0       -1.019390   -2.098188    0.178960
     11          1           0       -2.498374   -0.038510    0.053306
     12          1           0       -1.277214    2.021616    0.448661
 ---------------------------------------------------------------------

 SCF Done:  E(RB3LYP) =  -232.186307162     A.U. after   13 cycles

 Excitation energies and oscillator strengths:

 Excited State   1:      Singlet-A      4.8597 eV  255.13 nm  f=0.0028  <S**2>=0.000
      20 -> 22         0.48553
      20 -> 23         0.10440
      21 -> 22         0.20949
      21 -> 23        -0.45716
 This state for optimization and/or second-order correction.
 Total Energy, E(TD-HF/TD-DFT) =  -232.007716460
 Copying the excited state density for this state as the 1-particle RhoCI density.

 The electronic state is 1-A.
 Alpha  occ. eigenvalues --  -10.21651 -10.20046 -10.19982 -10.19738 -10.19214
 Alpha  occ. eigenvalues --  -10.18468  -0.82477  -0.73897  -0.72555  -0.60777
 Alpha  occ. eigenvalues --   -0.58775  -0.51024  -0.47731  -0.43029  -0.42367
 Alpha  occ. eigenvalues --   -0.39586  -0.35800  -0.33932  -0.32612  -0.24654
 Alpha  occ. eigenvalues --   -0.22944
 Alpha virt. eigenvalues --   -0.02314  -0.00315   0.08914   0.11977   0.14048
 Alpha virt. eigenvalues --    0.15030   0.16578   0.17960   0.20533   0.26084
 Alpha virt. eigenvalues --    0.26413   0.29884   0.31372   0.46066   0.47276

 Mulliken charges:
               1
     1  C   -0.106139
     2  C   -0.101067
     3  C   -0.075660
     4  C   -0.060254
     5  C   -0.110262
     6  C   -0.086864
     7  H    0.101478
     8  H    0.089755
     9  H    0.094310
    10  H    0.071563
    11  H    0.091499
    12  H    0.091640
 Sum of Mulliken charges =  -0.00000

 Dipole moment (field-independent basis, Debye):
    X=             -0.0640    Y=             -0.1223    Z=              0.6211  Tot=              0.6363
 Quadrupole moment (field-independent basis, Debye-Ang):
   XX=            -31.8706   YY=            -31.0308   ZZ=            -38.7262
   XY=              0.0828   XZ=             -0.2076   YZ=              0.1358

 Normal termination of Gaussian 16 at Fri Nov 10 22:34:42 2023.
