 Gaussian 16, Revision B.01,
 Gaussian 16:  EM64L-G16RevB.01 20-Dec-2017

 ---------------------------------
 # TD=(NStates=1) B3LYP/6-31G(d,p)
 ---------------------------------

 -------
 EMISPCT
 -------
 Symbolic Z-matrix:
 Charge =  0 Multiplicity = 1

                         Standard orientation:
 ---------------------------------------------------------------------
 Center     Atomic      Atomic             Coordinates (Angstroms)
 Number     Number       Type             X           Y           Z
 ---------------------------------------------------------------------
      1          6           0       -1.455599   -0.085356    0.009896
      2          6           0       -0.632477   -1.297433    0.025964
      3          6           0        0.841766   -1.158124   -0.087508
      4          6           0        1.472402    0.083274    0.006620
      5          6           0        0.624060    1.234353   -0.007026
      6          6           0       -0.816302    1.190538   -0.030618
      7          1           0       -2.469182   -0.213344   -0.011693
      8          1           0       -1.306775    2.198141   -0.059721
      9          1           0        0.990665    2.248941    0.120997
     10          1           0        2.601866    0.238214    0.292713
     11          1           0        1.279559   -2.095241   -0.133343
     12          1           0       -1.299224   -2.180222    0.287075
 ---------------------------------------------------------------------

 SCF Done:  E(RB3LYP) =  -232.213172559     A.U. after   13 cycles

 Excitation energies and oscillator strengths:

 Excited State   1:      Singlet-A      5.0113 eV  247.41 nm  f=0.0012  <S**2>=0.000
      20 -> 22         0.45737
      20 -> 23        -0.11181
      21 -> 22         0.16490
      21 -> 23         0.50075
 This state for optimization and/or second-order correction.
 Total Energy, E(TD-HF/TD-DFT) =  -232.029009215
 Copying the excited state density for this state as the 1-particle RhoCI density.

 The electronic state is 1-A.
 Alpha  occ. eigenvalues --  -10.20768 -10.20681 -10.19947 -10.19935 -10.19441
 Alpha  occ. eigenvalues --  -10.19156  -0.82806  -0.73740  -0.72489  -0.59886
 Alpha  occ. eigenvalues --   -0.58902  -0.50858  -0.46547  -0.43685  -0.41265
 Alpha  occ. eigenvalues --   -0.40054  -0.35204  -0.34278  -0.32679  -0.24626
 Alpha  occ. eigenvalues --   -0.23394
 Alpha virt. eigenvalues --   -0.01326  -0.00673   0.08224   0.12484   0.13285
 Alpha virt. eigenvalues --    0.14503   0.16853   0.17780   0.18939   0.26578
 Alpha virt. eigenvalues --    0.27889   0.30074   0.30791   0.46804   0.48054

 Mulliken charges:
               1
     1  C   -0.087681
     2  C   -0.105678
     3  C   -0.099146
     4  C   -0.079656
     5  C   -0.096414
     6  C   -0.077937
     7  H    0.085292
     8  H    0.088802
     9  H    0.083819
    10  H    0.097699
    11  H    0.092606
    12  H    0.098295
 Sum of Mulliken charges =  -0.00000

 Dipole moment (field-independent basis, Debye):
    X=             -0.1034    Y=              0.0036    Z=              0.3110  Tot=              0.3278
 Quadrupole moment (field-independent basis, Debye-Ang):
   XX=            -31.4409   YY=            -31.4434   ZZ=            -38.9391
   XY=              0.3621   XZ=              0.3356   YZ=             -0.0997

 Normal termination of Gaussian 16 at Fri Nov 10 20:20:16 2023.
