 Gaussian 16, Revision B.01,
 Gaussian 16:  EM64L-G16RevB.01 20-Dec-2017

 ---------------------------------
 # TD=(NStates=1) B3LYP/6-31G(d,p)
 ---------------------------------

 -------
 EMISPCT
 -------
 Symbolic Z-matrix:
 Charge =  0 Multiplicity = 1

                         Standard orientation:
 ---------------------------------------------------------------------
 Center     Atomic      Atomic             Coordinates (Angstroms)
 Number     Number       Type             X           Y           Z
 ---------------------------------------------------------------------
      1          6           0        0.176366    1.384475   -0.073103
      2          6           0        1.289749    0.558208    0.073271
      3          6           0        1.180666   -0.847837   -0.126165
      4          6           0       -0.184226   -1.347705    0.009820
      5          6           0       -1.340036   -0.603352    0.020637
      6          6           0       -1.132375    0.829920    0.057106
      7          1           0        0.413748    2.507884   -0.250727
      8          1           0       -2.073841    1.680185    0.056867
      9          1           0       -2.438223   -1.077210   -0.147519
     10          1           0       -0.121754   -2.400291    0.193172
     11          1           0        2.042225   -1.458108   -0.035919
     12          1           0        2.236989    0.905289    0.414726
 ---------------------------------------------------------------------

 SCF Done:  E(RB3LYP) =  -232.192190638     A.U. after   13 cycles

 Excitation energies and oscillator strengths:

 Excited State   1:      Singlet-A      4.8585 eV  255.19 nm  f=0.0048  <S**2>=0.000
      20 -> 23        -0.39846
      21 -> 22         0.57771
 This state for optimization and/or second-order correction.
 Total Energy, E(TD-HF/TD-DFT) =  -232.013645631
 Copying the excited state density for this state as the 1-particle RhoCI density.

 The electronic state is 1-A.
 Alpha  occ. eigenvalues --  -10.21765 -10.20909 -10.20022 -10.19367 -10.19330
 Alpha  occ. eigenvalues --  -10.19073  -0.83888  -0.74045  -0.72761  -0.59275
 Alpha  occ. eigenvalues --   -0.58775  -0.50417  -0.45687  -0.43614  -0.41278
 Alpha  occ. eigenvalues --   -0.40294  -0.34809  -0.34343  -0.33329  -0.23944
 Alpha  occ. eigenvalues --   -0.23467
 Alpha virt. eigenvalues --   -0.01557  -0.00436   0.06126   0.12300   0.12789
 Alpha virt. eigenvalues --    0.13767   0.14480   0.16973   0.19575   0.27215
 Alpha virt. eigenvalues --    0.28805   0.30856   0.32634   0.45632   0.47946

 Mulliken charges:
               1
     1  C   -0.080865
     2  C   -0.085152
     3  C   -0.089230
     4  C   -0.091918
     5  C   -0.084816
     6  C   -0.096246
     7  H    0.090130
     8  H    0.071482
     9  H    0.097918
    10  H    0.085708
    11  H    0.092044
    12  H    0.090944
 Sum of Mulliken charges =  -0.00000

 Dipole moment (field-independent basis, Debye):
    X=              0.3108    Y=             -0.0751    Z=              0.1553  Tot=              0.3555
 Quadrupole moment (field-independent basis, Debye-Ang):
   XX=            -31.5048   YY=            -32.1686   ZZ=            -38.8458
   XY=             -0.1020   XZ=              0.8568   YZ=             -0.3512

 Normal termination of Gaussian 16 at Fri Nov 10 21:32:17 2023.
