 Gaussian 16, Revision B.01,
 Gaussian 16:  EM64L-G16RevB.01 20-Dec-2017

 ---------------------------------
 # TD=(NStates=1) B3LYP/6-31G(d,p)
 ---------------------------------

 -------
 EMISPCT
 -------
 Symbolic Z-matrix:
 Charge =  0 Multiplicity = 1

                         Standard orientation:
 ---------------------------------------------------------------------
 Center     Atomic      Atomic             Coordinates (Angstroms)
 Number     Number       Type             X           Y           Z
 ---------------------------------------------------------------------
      1          6           0        0.540932    1.320343   -0.032251
      2          6           0       -0.827515    1.104732   -0.096485
      3          6           0       -1.432565   -0.132086    0.099058
      4          6           0       -0.618776   -1.338208   -0.065564
      5          6           0        0.878866   -1.124883    0.051173
      6          6           0        1.467001    0.149123   -0.010109
      7          1           0        0.824417    2.358588    0.302158
      8          1           0        2.592266    0.111886    0.060992
      9          1           0        1.442513   -1.915759   -0.027941
     10          1           0       -1.083715   -2.254890   -0.143747
     11          1           0       -2.487466   -0.208085    0.253049
     12          1           0       -1.335676    2.034136   -0.119445
 ---------------------------------------------------------------------

 SCF Done:  E(RB3LYP) =  -232.199567060     A.U. after   13 cycles

 Excitation energies and oscillator strengths:

 Excited State   1:      Singlet-A      4.9250 eV  251.74 nm  f=0.0003  <S**2>=0.000
      20 -> 22         0.50521
      21 -> 23         0.49126
 This state for optimization and/or second-order correction.
 Total Energy, E(TD-HF/TD-DFT) =  -232.018575432
 Copying the excited state density for this state as the 1-particle RhoCI density.

 The electronic state is 1-A.
 Alpha  occ. eigenvalues --  -10.20343 -10.20139 -10.20052 -10.19591 -10.18863
 Alpha  occ. eigenvalues --  -10.18530  -0.82939  -0.74201  -0.72513  -0.60361
 Alpha  occ. eigenvalues --   -0.59104  -0.51201  -0.47537  -0.42636  -0.41676
 Alpha  occ. eigenvalues --   -0.40983  -0.35721  -0.34477  -0.32628  -0.24681
 Alpha  occ. eigenvalues --   -0.22864
 Alpha virt. eigenvalues --   -0.02190   0.00004   0.09246   0.12684   0.14235
 Alpha virt. eigenvalues --    0.15027   0.16882   0.18754   0.19568   0.26639
 Alpha virt. eigenvalues --    0.28357   0.29753   0.30802   0.45534   0.47462

 Mulliken charges:
               1
     1  C   -0.107357
     2  C   -0.066544
     3  C   -0.084514
     4  C   -0.101476
     5  C   -0.072567
     6  C   -0.098556
     7  H    0.094340
     8  H    0.092278
     9  H    0.078636
    10  H    0.092390
    11  H    0.089114
    12  H    0.084256
 Sum of Mulliken charges =  -0.00000

 Dipole moment (field-independent basis, Debye):
    X=             -0.1539    Y=             -0.1026    Z=              0.2039  Tot=              0.2753
 Quadrupole moment (field-independent basis, Debye-Ang):
   XX=            -31.4532   YY=            -31.2821   ZZ=            -38.7178
   XY=             -0.2720   XZ=              0.0455   YZ=              0.7379

 Normal termination of Gaussian 16 at Fri Nov 10 21:50:12 2023.
