 Gaussian 16, Revision B.01,
 Gaussian 16:  EM64L-G16RevB.01 20-Dec-2017

 ---------------------------------
 # TD=(NStates=1) B3LYP/6-31G(d,p)
 ---------------------------------

 -------
 EMISPCT
 -------
 Symbolic Z-matrix:
 Charge =  0 Multiplicity = 1

                         Standard orientation:
 ---------------------------------------------------------------------
 Center     Atomic      Atomic             Coordinates (Angstroms)
 Number     Number       Type             X           Y           Z
 ---------------------------------------------------------------------
      1          6           0        0.437920   -1.379574    0.113687
      2          6           0        1.412013   -0.327189   -0.095603
      3          6           0        1.036386    1.042211   -0.036309
      4          6           0       -0.444315    1.355166    0.039923
      5          6           0       -1.482431    0.278632   -0.034390
      6          6           0       -0.971576   -1.077719   -0.014138
      7          1           0        0.741531   -2.382400    0.252657
      8          1           0       -1.743371   -1.620815   -0.169749
      9          1           0       -2.485509    0.704896   -0.268635
     10          1           0       -0.811080    2.453018    0.477490
     11          1           0        1.795351    1.853912   -0.036200
     12          1           0        2.575094   -0.357771   -0.094583
 ---------------------------------------------------------------------

 SCF Done:  E(RB3LYP) =  -232.170591689     A.U. after   14 cycles

 Excitation energies and oscillator strengths:

 Excited State   1:      Singlet-A      4.7849 eV  259.12 nm  f=0.0001  <S**2>=0.000
      20 -> 22         0.50596
      21 -> 23        -0.49086
 This state for optimization and/or second-order correction.
 Total Energy, E(TD-HF/TD-DFT) =  -231.994750001
 Copying the excited state density for this state as the 1-particle RhoCI density.

 The electronic state is 1-A.
 Alpha  occ. eigenvalues --  -10.21820 -10.20992 -10.20721 -10.20695 -10.20655
 Alpha  occ. eigenvalues --  -10.19346  -0.82133  -0.73856  -0.71574  -0.60588
 Alpha  occ. eigenvalues --   -0.58054  -0.50295  -0.46624  -0.43153  -0.41276
 Alpha  occ. eigenvalues --   -0.40308  -0.35180  -0.33548  -0.31697  -0.24537
 Alpha  occ. eigenvalues --   -0.23077
 Alpha virt. eigenvalues --   -0.02466  -0.00902   0.08285   0.10593   0.12801
 Alpha virt. eigenvalues --    0.13811   0.16124   0.16392   0.17952   0.25860
 Alpha virt. eigenvalues --    0.27729   0.27980   0.29163   0.45569   0.46752

 Mulliken charges:
               1
     1  C   -0.098019
     2  C   -0.082950
     3  C   -0.095476
     4  C   -0.098480
     5  C   -0.115563
     6  C   -0.064117
     7  H    0.098167
     8  H    0.085002
     9  H    0.107895
    10  H    0.072899
    11  H    0.099509
    12  H    0.091134
 Sum of Mulliken charges =  -0.00000

 Dipole moment (field-independent basis, Debye):
    X=              0.0151    Y=             -0.0461    Z=              0.0443  Tot=              0.0657
 Quadrupole moment (field-independent basis, Debye-Ang):
   XX=            -30.6457   YY=            -32.4025   ZZ=            -39.1208
   XY=              0.3369   XZ=              0.5337   YZ=              0.3337

 Normal termination of Gaussian 16 at Fri Nov 10 20:08:31 2023.
