 Gaussian 16, Revision B.01,
 Gaussian 16:  EM64L-G16RevB.01 20-Dec-2017

 ---------------------------------
 # TD=(NStates=1) B3LYP/6-31G(d,p)
 ---------------------------------

 -------
 EMISPCT
 -------
 Symbolic Z-matrix:
 Charge =  0 Multiplicity = 1

                         Standard orientation:
 ---------------------------------------------------------------------
 Center     Atomic      Atomic             Coordinates (Angstroms)
 Number     Number       Type             X           Y           Z
 ---------------------------------------------------------------------
      1          6           0       -1.093510   -0.943802   -0.039472
      2          6           0       -1.416902    0.386916    0.039566
      3          6           0       -0.375262    1.363008    0.005542
      4          6           0        1.053841    0.992688    0.014121
      5          6           0        1.419344   -0.434195   -0.061993
      6          6           0        0.345539   -1.358227    0.025617
      7          1           0       -1.780251   -1.778116   -0.200313
      8          1           0        0.496511   -2.347510    0.168167
      9          1           0        2.528008   -0.779210    0.204053
     10          1           0        1.981349    1.697788   -0.149076
     11          1           0       -0.502352    2.399410   -0.003679
     12          1           0       -2.321565    0.769305    0.080561
 ---------------------------------------------------------------------

 SCF Done:  E(RB3LYP) =  -232.200235560     A.U. after   13 cycles

 Excitation energies and oscillator strengths:

 Excited State   1:      Singlet-A      5.0051 eV  247.71 nm  f=0.0031  <S**2>=0.000
      20 -> 22         0.44473
      21 -> 22        -0.16694
      21 -> 23         0.51417
 This state for optimization and/or second-order correction.
 Total Energy, E(TD-HF/TD-DFT) =  -232.016300871
 Copying the excited state density for this state as the 1-particle RhoCI density.

 The electronic state is 1-A.
 Alpha  occ. eigenvalues --  -10.21097 -10.20694 -10.19939 -10.19740 -10.19184
 Alpha  occ. eigenvalues --  -10.18776  -0.82823  -0.74031  -0.72268  -0.59915
 Alpha  occ. eigenvalues --   -0.59384  -0.51156  -0.46948  -0.42868  -0.42374
 Alpha  occ. eigenvalues --   -0.40021  -0.35508  -0.33736  -0.32716  -0.25059
 Alpha  occ. eigenvalues --   -0.23179
 Alpha virt. eigenvalues --   -0.01649  -0.00608   0.09001   0.12050   0.13902
 Alpha virt. eigenvalues --    0.14553   0.16514   0.18333   0.18916   0.26123
 Alpha virt. eigenvalues --    0.28239   0.28824   0.31587   0.46666   0.48859

 Mulliken charges:
               1
     1  C   -0.099475
     2  C   -0.049888
     3  C   -0.097375
     4  C   -0.106402
     5  C   -0.093989
     6  C   -0.079849
     7  H    0.093268
     8  H    0.083492
     9  H    0.086624
    10  H    0.089335
    11  H    0.091170
    12  H    0.083090
 Sum of Mulliken charges =  -0.00000

 Dipole moment (field-independent basis, Debye):
    X=             -0.1846    Y=             -0.0457    Z=              0.0699  Tot=              0.2026
 Quadrupole moment (field-independent basis, Debye-Ang):
   XX=            -31.3200   YY=            -31.4566   ZZ=            -38.9226
   XY=              0.0305   XZ=              0.3775   YZ=             -0.3312

 Normal termination of Gaussian 16 at Fri Nov 10 20:04:37 2023.
