 Gaussian 16, Revision B.01,
 Gaussian 16:  EM64L-G16RevB.01 20-Dec-2017

 ---------------------------------
 # TD=(NStates=1) B3LYP/6-31G(d,p)
 ---------------------------------

 -------
 EMISPCT
 -------
 Symbolic Z-matrix:
 Charge =  0 Multiplicity = 1

                         Standard orientation:
 ---------------------------------------------------------------------
 Center     Atomic      Atomic             Coordinates (Angstroms)
 Number     Number       Type             X           Y           Z
 ---------------------------------------------------------------------
      1          6           0        0.302915    1.345335    0.022672
      2          6           0        1.447580    0.440135    0.001994
      3          6           0        1.095186   -0.951030    0.055899
      4          6           0       -0.312372   -1.255672   -0.004123
      5          6           0       -1.409615   -0.451720   -0.062914
      6          6           0       -1.064604    0.912733   -0.058411
      7          1           0        0.349918    2.458465   -0.275200
      8          1           0       -1.919592    1.518561    0.253232
      9          1           0       -2.341473   -0.751118    0.500085
     10          1           0       -0.492312   -2.352933   -0.305498
     11          1           0        1.650919   -1.928941   -0.043262
     12          1           0        2.397996    0.817283    0.139937
 ---------------------------------------------------------------------

 SCF Done:  E(RB3LYP) =  -232.185315958     A.U. after   14 cycles

 Excitation energies and oscillator strengths:

 Excited State   1:      Singlet-A      4.8215 eV  257.15 nm  f=0.0085  <S**2>=0.000
      20 -> 22         0.18396
      20 -> 23         0.37597
      21 -> 22         0.54361
      21 -> 23        -0.16945
 This state for optimization and/or second-order correction.
 Total Energy, E(TD-HF/TD-DFT) =  -232.008129809
 Copying the excited state density for this state as the 1-particle RhoCI density.

 The electronic state is 1-A.
 Alpha  occ. eigenvalues --  -10.20967 -10.20748 -10.20720 -10.19327 -10.19245
 Alpha  occ. eigenvalues --  -10.18692  -0.84047  -0.74676  -0.72621  -0.60523
 Alpha  occ. eigenvalues --   -0.58634  -0.50769  -0.45694  -0.43532  -0.42471
 Alpha  occ. eigenvalues --   -0.38591  -0.37263  -0.34233  -0.30526  -0.25047
 Alpha  occ. eigenvalues --   -0.23829
 Alpha virt. eigenvalues --   -0.02548  -0.01381   0.08899   0.10199   0.12643
 Alpha virt. eigenvalues --    0.15048   0.16341   0.17735   0.19321   0.25730
 Alpha virt. eigenvalues --    0.28714   0.29651   0.32178   0.46078   0.46688

 Mulliken charges:
               1
     1  C   -0.100332
     2  C   -0.092032
     3  C   -0.078006
     4  C   -0.083844
     5  C   -0.103398
     6  C   -0.093494
     7  H    0.089349
     8  H    0.089349
     9  H    0.103819
    10  H    0.065939
    11  H    0.100905
    12  H    0.101748
 Sum of Mulliken charges =  -0.00000

 Dipole moment (field-independent basis, Debye):
    X=              0.1703    Y=             -0.0058    Z=              0.2162  Tot=              0.2753
 Quadrupole moment (field-independent basis, Debye-Ang):
   XX=            -31.8498   YY=            -32.8269   ZZ=            -38.4396
   XY=             -0.3813   XZ=             -1.1664   YZ=              0.0899

 Normal termination of Gaussian 16 at Fri Nov 10 20:52:25 2023.
