 Gaussian 16, Revision B.01,
 Gaussian 16:  EM64L-G16RevB.01 20-Dec-2017

 ---------------------------------
 # TD=(NStates=1) B3LYP/6-31G(d,p)
 ---------------------------------

 -------
 EMISPCT
 -------
 Symbolic Z-matrix:
 Charge =  0 Multiplicity = 1

                         Standard orientation:
 ---------------------------------------------------------------------
 Center     Atomic      Atomic             Coordinates (Angstroms)
 Number     Number       Type             X           Y           Z
 ---------------------------------------------------------------------
      1          6           0       -1.309001   -0.664073    0.114471
      2          6           0       -0.046494   -1.390036   -0.140634
      3          6           0        1.248271   -0.808305   -0.025117
      4          6           0        1.257340    0.673672    0.071297
      5          6           0        0.113558    1.423243   -0.197540
      6          6           0       -1.276818    0.809687    0.033498
      7          1           0       -2.261563   -1.382750    0.318034
      8          1           0       -2.272634    1.169496    0.031037
      9          1           0        0.174628    2.569877   -0.068518
     10          1           0        2.267492    1.154629    0.638993
     11          1           0        2.251919   -1.389063    0.107010
     12          1           0       -0.080983   -2.387319   -0.162410
 ---------------------------------------------------------------------

 SCF Done:  E(RB3LYP) =  -232.161121780     A.U. after   13 cycles

 Excitation energies and oscillator strengths:

 Excited State   1:      Singlet-A      4.6629 eV  265.90 nm  f=0.0024  <S**2>=0.000
      20 -> 22        -0.17043
      20 -> 23        -0.41206
      21 -> 22         0.51622
      21 -> 23        -0.18497
 This state for optimization and/or second-order correction.
 Total Energy, E(TD-HF/TD-DFT) =  -231.989765182
 Copying the excited state density for this state as the 1-particle RhoCI density.

 The electronic state is 1-A.
 Alpha  occ. eigenvalues --  -10.21693 -10.21578 -10.21551 -10.21484 -10.21098
 Alpha  occ. eigenvalues --  -10.19287  -0.82030  -0.72803  -0.72199  -0.59872
 Alpha  occ. eigenvalues --   -0.57294  -0.49654  -0.46272  -0.42351  -0.40650
 Alpha  occ. eigenvalues --   -0.39708  -0.35524  -0.33801  -0.31612  -0.24068
 Alpha  occ. eigenvalues --   -0.23488
 Alpha virt. eigenvalues --   -0.02334  -0.01775   0.06918   0.08953   0.11916
 Alpha virt. eigenvalues --    0.13629   0.14841   0.15549   0.18732   0.26163
 Alpha virt. eigenvalues --    0.26208   0.27284   0.30812   0.43680   0.48013

 Mulliken charges:
               1
     1  C   -0.100360
     2  C   -0.071558
     3  C   -0.094923
     4  C   -0.079097
     5  C   -0.108857
     6  C   -0.104000
     7  H    0.092770
     8  H    0.108608
     9  H    0.091262
    10  H    0.084153
    11  H    0.100420
    12  H    0.081582
 Sum of Mulliken charges =  -0.00000

 Dipole moment (field-independent basis, Debye):
    X=             -0.1107    Y=             -0.3080    Z=              0.4883  Tot=              0.5879
 Quadrupole moment (field-independent basis, Debye-Ang):
   XX=            -31.1528   YY=            -32.2428   ZZ=            -39.2131
   XY=             -0.1876   XZ=              0.6863   YZ=              0.2851

 Normal termination of Gaussian 16 at Fri Nov 10 22:15:37 2023.
