 Gaussian 16, Revision B.01,
 Gaussian 16:  EM64L-G16RevB.01 20-Dec-2017

 ---------------------------------
 # TD=(NStates=1) B3LYP/6-31G(d,p)
 ---------------------------------

 -------
 EMISPCT
 -------
 Symbolic Z-matrix:
 Charge =  0 Multiplicity = 1

                         Standard orientation:
 ---------------------------------------------------------------------
 Center     Atomic      Atomic             Coordinates (Angstroms)
 Number     Number       Type             X           Y           Z
 ---------------------------------------------------------------------
      1          6           0        0.992209   -0.999253   -0.076444
      2          6           0        1.341303    0.288113    0.063126
      3          6           0        0.415920    1.334395    0.006848
      4          6           0       -0.954403    1.035900   -0.069675
      5          6           0       -1.430480   -0.335138   -0.030447
      6          6           0       -0.428074   -1.336804    0.124021
      7          1           0        1.796135   -1.779242   -0.180661
      8          1           0       -0.748539   -2.385173   -0.086321
      9          1           0       -2.347809   -0.460531    0.091827
     10          1           0       -1.652145    1.835099   -0.023880
     11          1           0        0.896136    2.403117    0.133686
     12          1           0        2.437363    0.463458   -0.039215
 ---------------------------------------------------------------------

 SCF Done:  E(RB3LYP) =  -232.204795044     A.U. after   13 cycles

 Excitation energies and oscillator strengths:

 Excited State   1:      Singlet-A      5.2492 eV  236.20 nm  f=0.0005  <S**2>=0.000
      20 -> 22         0.49343
      21 -> 22         0.12162
      21 -> 23        -0.48296
 This state for optimization and/or second-order correction.
 Total Energy, E(TD-HF/TD-DFT) =  -232.011891296
 Copying the excited state density for this state as the 1-particle RhoCI density.

 The electronic state is 1-A.
 Alpha  occ. eigenvalues --  -10.20026 -10.19983 -10.19433 -10.19349 -10.18583
 Alpha  occ. eigenvalues --  -10.18458  -0.84196  -0.74863  -0.72864  -0.60229
 Alpha  occ. eigenvalues --   -0.59676  -0.51246  -0.46430  -0.43298  -0.42399
 Alpha  occ. eigenvalues --   -0.40420  -0.35544  -0.34059  -0.33109  -0.25029
 Alpha  occ. eigenvalues --   -0.24138
 Alpha virt. eigenvalues --   -0.01230  -0.00211   0.08320   0.13216   0.14122
 Alpha virt. eigenvalues --    0.15052   0.16721   0.18549   0.19608   0.27277
 Alpha virt. eigenvalues --    0.29429   0.30928   0.32131   0.45472   0.48622

 Mulliken charges:
               1
     1  C   -0.084481
     2  C   -0.067604
     3  C   -0.080496
     4  C   -0.102076
     5  C   -0.047182
     6  C   -0.117827
     7  H    0.089557
     8  H    0.083482
     9  H    0.075873
    10  H    0.085986
    11  H    0.085874
    12  H    0.078894
 Sum of Mulliken charges =  -0.00000

 Dipole moment (field-independent basis, Debye):
    X=             -0.0098    Y=              0.0689    Z=             -0.0614  Tot=              0.0928
 Quadrupole moment (field-independent basis, Debye-Ang):
   XX=            -31.0158   YY=            -32.2875   ZZ=            -38.6354
   XY=             -0.2329   XZ=             -0.3460   YZ=              0.6369

 Normal termination of Gaussian 16 at Fri Nov 10 21:33:59 2023.
