 Gaussian 16, Revision B.01,
 Gaussian 16:  EM64L-G16RevB.01 20-Dec-2017

 ---------------------------------
 # TD=(NStates=1) B3LYP/6-31G(d,p)
 ---------------------------------

 -------
 EMISPCT
 -------
 Symbolic Z-matrix:
 Charge =  0 Multiplicity = 1

                         Standard orientation:
 ---------------------------------------------------------------------
 Center     Atomic      Atomic             Coordinates (Angstroms)
 Number     Number       Type             X           Y           Z
 ---------------------------------------------------------------------
      1          6           0        1.102608    1.001144    0.006130
      2          6           0        1.434424   -0.437019    0.005296
      3          6           0        0.301523   -1.390648   -0.004047
      4          6           0       -1.068229   -0.964975   -0.034840
      5          6           0       -1.382269    0.416452    0.080599
      6          6           0       -0.365137    1.338994   -0.105127
      7          1           0        1.772490    1.929562   -0.113548
      8          1           0       -0.638676    2.418106    0.352520
      9          1           0       -2.482646    0.765544    0.020227
     10          1           0       -1.843430   -1.674277   -0.224176
     11          1           0        0.530706   -2.472656    0.250601
     12          1           0        2.524034   -0.749965    0.026309
 ---------------------------------------------------------------------

 SCF Done:  E(RB3LYP) =  -232.196868368     A.U. after   13 cycles

 Excitation energies and oscillator strengths:

 Excited State   1:      Singlet-A      4.8612 eV  255.05 nm  f=0.0002  <S**2>=0.000
      20 -> 22         0.50648
      21 -> 23         0.48630
 This state for optimization and/or second-order correction.
 Total Energy, E(TD-HF/TD-DFT) =  -232.018223898
 Copying the excited state density for this state as the 1-particle RhoCI density.

 The electronic state is 1-A.
 Alpha  occ. eigenvalues --  -10.21863 -10.21809 -10.21181 -10.20442 -10.20082
 Alpha  occ. eigenvalues --  -10.19902  -0.82650  -0.73111  -0.72241  -0.59302
 Alpha  occ. eigenvalues --   -0.58224  -0.49739  -0.45787  -0.42441  -0.41624
 Alpha  occ. eigenvalues --   -0.39417  -0.36285  -0.33833  -0.31228  -0.24786
 Alpha  occ. eigenvalues --   -0.23844
 Alpha virt. eigenvalues --   -0.02501  -0.01350   0.08051   0.10617   0.12734
 Alpha virt. eigenvalues --    0.13796   0.15122   0.15693   0.17469   0.24866
 Alpha virt. eigenvalues --    0.27664   0.28580   0.30717   0.44280   0.47904

 Mulliken charges:
               1
     1  C   -0.099590
     2  C   -0.097605
     3  C   -0.098354
     4  C   -0.083163
     5  C   -0.075312
     6  C   -0.103683
     7  H    0.103797
     8  H    0.072685
     9  H    0.091139
    10  H    0.095268
    11  H    0.095468
    12  H    0.099349
 Sum of Mulliken charges =  -0.00000

 Dipole moment (field-independent basis, Debye):
    X=              0.0249    Y=             -0.2540    Z=              0.1711  Tot=              0.3073
 Quadrupole moment (field-independent basis, Debye-Ang):
   XX=            -31.2514   YY=            -32.3475   ZZ=            -39.2254
   XY=              0.3887   XZ=              0.1568   YZ=              0.2664

 Normal termination of Gaussian 16 at Fri Nov 10 20:11:01 2023.
