 Gaussian 16, Revision B.01,
 Gaussian 16:  EM64L-G16RevB.01 20-Dec-2017

 ---------------------------------
 # TD=(NStates=1) B3LYP/6-31G(d,p)
 ---------------------------------

 -------
 EMISPCT
 -------
 Symbolic Z-matrix:
 Charge =  0 Multiplicity = 1

                         Standard orientation:
 ---------------------------------------------------------------------
 Center     Atomic      Atomic             Coordinates (Angstroms)
 Number     Number       Type             X           Y           Z
 ---------------------------------------------------------------------
      1          6           0        1.436870    0.243463    0.019895
      2          6           0        0.886554   -1.107500   -0.059821
      3          6           0       -0.521705   -1.253838   -0.022727
      4          6           0       -1.394059   -0.237274   -0.041016
      5          6           0       -0.874442    1.079312    0.022340
      6          6           0        0.491537    1.336071   -0.013874
      7          1           0        2.503405    0.266661    0.165540
      8          1           0        0.755162    2.425925   -0.098749
      9          1           0       -1.673029    1.895842    0.100455
     10          1           0       -2.413669   -0.645810    0.125656
     11          1           0       -0.889847   -2.225674    0.168621
     12          1           0        1.569444   -2.078348    0.109692
 ---------------------------------------------------------------------

 SCF Done:  E(RB3LYP) =  -232.220630845     A.U. after   13 cycles

 Excitation energies and oscillator strengths:

 Excited State   1:      Singlet-A      5.3024 eV  233.82 nm  f=0.0013  <S**2>=0.000
      20 -> 22         0.49560
      20 -> 23         0.13880
      21 -> 22        -0.18254
      21 -> 23         0.44859
 This state for optimization and/or second-order correction.
 Total Energy, E(TD-HF/TD-DFT) =  -232.025769518
 Copying the excited state density for this state as the 1-particle RhoCI density.

 The electronic state is 1-A.
 Alpha  occ. eigenvalues --  -10.20451 -10.20416 -10.20281 -10.19918 -10.18629
 Alpha  occ. eigenvalues --  -10.17892  -0.84311  -0.74421  -0.72963  -0.59854
 Alpha  occ. eigenvalues --   -0.58969  -0.51081  -0.45271  -0.43567  -0.41875
 Alpha  occ. eigenvalues --   -0.40275  -0.35645  -0.33966  -0.33121  -0.24862
 Alpha  occ. eigenvalues --   -0.24201
 Alpha virt. eigenvalues --   -0.01008   0.00179   0.07757   0.12442   0.13263
 Alpha virt. eigenvalues --    0.14788   0.16031   0.16928   0.20360   0.27759
 Alpha virt. eigenvalues --    0.29626   0.30140   0.32499   0.46512   0.49941

 Mulliken charges:
               1
     1  C   -0.101926
     2  C   -0.096679
     3  C   -0.072668
     4  C   -0.067770
     5  C   -0.101013
     6  C   -0.086775
     7  H    0.097402
     8  H    0.092701
     9  H    0.086115
    10  H    0.088794
    11  H    0.080246
    12  H    0.081574
 Sum of Mulliken charges =  -0.00000

 Dipole moment (field-independent basis, Debye):
    X=             -0.0444    Y=             -0.1108    Z=              0.3464  Tot=              0.3663
 Quadrupole moment (field-independent basis, Debye-Ang):
   XX=            -31.6890   YY=            -31.7389   ZZ=            -38.7914
   XY=              0.0825   XZ=             -0.0459   YZ=             -0.6072

 Normal termination of Gaussian 16 at Fri Nov 10 21:01:24 2023.
