 Gaussian 16, Revision B.01,
 Gaussian 16:  EM64L-G16RevB.01 20-Dec-2017

 ---------------------------------
 # TD=(NStates=1) B3LYP/6-31G(d,p)
 ---------------------------------

 -------
 EMISPCT
 -------
 Symbolic Z-matrix:
 Charge =  0 Multiplicity = 1

                         Standard orientation:
 ---------------------------------------------------------------------
 Center     Atomic      Atomic             Coordinates (Angstroms)
 Number     Number       Type             X           Y           Z
 ---------------------------------------------------------------------
      1          6           0        1.170328    0.763639   -0.118206
      2          6           0       -0.129498    1.358849    0.067968
      3          6           0       -1.272216    0.566410    0.023175
      4          6           0       -1.238676   -0.805521   -0.030382
      5          6           0        0.158900   -1.364476    0.034245
      6          6           0        1.300459   -0.583174   -0.040067
      7          1           0        1.925517    1.476421    0.178902
      8          1           0        2.398108   -1.072384    0.268100
      9          1           0        0.208496   -2.380341    0.040500
     10          1           0       -2.218414   -1.197854   -0.098982
     11          1           0       -2.125645    1.053882    0.051256
     12          1           0       -0.123837    2.505913   -0.060176
 ---------------------------------------------------------------------

 SCF Done:  E(RB3LYP) =  -232.192058004     A.U. after   13 cycles

 Excitation energies and oscillator strengths:

 Excited State   1:      Singlet-A      5.2655 eV  235.47 nm  f=0.0042  <S**2>=0.000
      20 -> 22         0.47901
      21 -> 22        -0.20322
      21 -> 23         0.46928
 This state for optimization and/or second-order correction.
 Total Energy, E(TD-HF/TD-DFT) =  -231.998555304
 Copying the excited state density for this state as the 1-particle RhoCI density.

 The electronic state is 1-A.
 Alpha  occ. eigenvalues --  -10.20199 -10.19692 -10.19504 -10.19348 -10.18536
 Alpha  occ. eigenvalues --  -10.17428  -0.84549  -0.75480  -0.72837  -0.61000
 Alpha  occ. eigenvalues --   -0.59015  -0.51848  -0.46203  -0.43552  -0.42188
 Alpha  occ. eigenvalues --   -0.40040  -0.36208  -0.34348  -0.32114  -0.25821
 Alpha  occ. eigenvalues --   -0.23528
 Alpha virt. eigenvalues --   -0.01930   0.00561   0.07851   0.11960   0.13859
 Alpha virt. eigenvalues --    0.15228   0.17460   0.18600   0.20327   0.27098
 Alpha virt. eigenvalues --    0.28985   0.31033   0.33410   0.46326   0.48023

 Mulliken charges:
               1
     1  C   -0.097116
     2  C   -0.097438
     3  C   -0.057972
     4  C   -0.081764
     5  C   -0.106811
     6  C   -0.065585
     7  H    0.090340
     8  H    0.079740
     9  H    0.085579
    10  H    0.096262
    11  H    0.073104
    12  H    0.081659
 Sum of Mulliken charges =  -0.00000

 Dipole moment (field-independent basis, Debye):
    X=             -0.3059    Y=              0.0339    Z=              0.2068  Tot=              0.3708
 Quadrupole moment (field-independent basis, Debye-Ang):
   XX=            -31.3279   YY=            -32.2321   ZZ=            -38.4817
   XY=              0.2060   XZ=              0.8982   YZ=             -0.0455

 Normal termination of Gaussian 16 at Fri Nov 10 20:24:41 2023.
