 Gaussian 16, Revision B.01,
 Gaussian 16:  EM64L-G16RevB.01 20-Dec-2017

 ---------------------------------
 # TD=(NStates=1) B3LYP/6-31G(d,p)
 ---------------------------------

 -------
 EMISPCT
 -------
 Symbolic Z-matrix:
 Charge =  0 Multiplicity = 1

                         Standard orientation:
 ---------------------------------------------------------------------
 Center     Atomic      Atomic             Coordinates (Angstroms)
 Number     Number       Type             X           Y           Z
 ---------------------------------------------------------------------
      1          6           0       -1.290931   -0.649174    0.063205
      2          6           0       -0.026301   -1.348411   -0.111104
      3          6           0        1.266462   -0.796604    0.019177
      4          6           0        1.292158    0.692322   -0.070453
      5          6           0        0.023171    1.443071    0.010327
      6          6           0       -1.219174    0.719394    0.032143
      7          1           0       -2.296209   -1.423070    0.014219
      8          1           0       -2.008895    1.410744   -0.041008
      9          1           0       -0.071231    2.354188    0.014294
     10          1           0        2.306908    1.182633   -0.013299
     11          1           0        2.076567   -1.517069    0.505290
     12          1           0       -0.279445   -2.371009   -0.139261
 ---------------------------------------------------------------------

 SCF Done:  E(RB3LYP) =  -232.158468241     A.U. after   14 cycles

 Excitation energies and oscillator strengths:

 Excited State   1:      Singlet-A      4.8463 eV  255.83 nm  f=0.0014  <S**2>=0.000
      20 -> 23         0.45937
      21 -> 22         0.53401
 This state for optimization and/or second-order correction.
 Total Energy, E(TD-HF/TD-DFT) =  -231.980370140
 Copying the excited state density for this state as the 1-particle RhoCI density.

 The electronic state is 1-A.
 Alpha  occ. eigenvalues --  -10.21471 -10.21273 -10.20962 -10.19123 -10.19018
 Alpha  occ. eigenvalues --  -10.18671  -0.83170  -0.74120  -0.72642  -0.60554
 Alpha  occ. eigenvalues --   -0.59152  -0.50455  -0.46999  -0.42566  -0.41515
 Alpha  occ. eigenvalues --   -0.40468  -0.34998  -0.33852  -0.33107  -0.24061
 Alpha  occ. eigenvalues --   -0.23684
 Alpha virt. eigenvalues --   -0.01696  -0.01207   0.07153   0.10076   0.13444
 Alpha virt. eigenvalues --    0.14762   0.15302   0.18346   0.20783   0.26190
 Alpha virt. eigenvalues --    0.27687   0.29727   0.32373   0.45334   0.47144

 Mulliken charges:
               1
     1  C   -0.087702
     2  C   -0.072043
     3  C   -0.104182
     4  C   -0.116679
     5  C   -0.031828
     6  C   -0.087607
     7  H    0.080213
     8  H    0.083496
     9  H    0.057832
    10  H    0.090932
    11  H    0.107432
    12  H    0.080136
 Sum of Mulliken charges =  -0.00000

 Dipole moment (field-independent basis, Debye):
    X=             -0.0847    Y=              0.0551    Z=              0.2315  Tot=              0.2526
 Quadrupole moment (field-independent basis, Debye-Ang):
   XX=            -32.1910   YY=            -31.1619   ZZ=            -38.8130
   XY=             -0.0282   XZ=              0.9806   YZ=             -0.4827

 Normal termination of Gaussian 16 at Fri Nov 10 22:52:41 2023.
