 Gaussian 16, Revision B.01,
 Gaussian 16:  EM64L-G16RevB.01 20-Dec-2017

 ---------------------------------
 # TD=(NStates=1) B3LYP/6-31G(d,p)
 ---------------------------------

 -------
 EMISPCT
 -------
 Symbolic Z-matrix:
 Charge =  0 Multiplicity = 1

                         Standard orientation:
 ---------------------------------------------------------------------
 Center     Atomic      Atomic             Coordinates (Angstroms)
 Number     Number       Type             X           Y           Z
 ---------------------------------------------------------------------
      1          6           0        1.216918    0.829217    0.051619
      2          6           0       -0.129346    1.363005    0.034343
      3          6           0       -1.298735    0.566811   -0.007656
      4          6           0       -1.214760   -0.829301    0.016996
      5          6           0        0.154743   -1.417014   -0.049469
      6          6           0        1.303755   -0.581293   -0.042526
      7          1           0        2.012956    1.547317    0.028063
      8          1           0        2.298587   -1.095829   -0.067917
      9          1           0        0.205191   -2.548169    0.251697
     10          1           0       -2.103231   -1.223671   -0.030042
     11          1           0       -2.314090    1.142887   -0.008862
     12          1           0       -0.294864    2.588921   -0.192784
 ---------------------------------------------------------------------

 SCF Done:  E(RB3LYP) =  -232.199392198     A.U. after   13 cycles

 Excitation energies and oscillator strengths:

 Excited State   1:      Singlet-A      5.1226 eV  242.03 nm  f=0.0025  <S**2>=0.000
      20 -> 22         0.47352
      20 -> 23         0.11715
      21 -> 22        -0.20959
      21 -> 23         0.46646
 This state for optimization and/or second-order correction.
 Total Energy, E(TD-HF/TD-DFT) =  -232.011138668
 Copying the excited state density for this state as the 1-particle RhoCI density.

 The electronic state is 1-A.
 Alpha  occ. eigenvalues --  -10.21194 -10.20949 -10.20466 -10.20174 -10.19836
 Alpha  occ. eigenvalues --  -10.19105  -0.83383  -0.74480  -0.72198  -0.60805
 Alpha  occ. eigenvalues --   -0.57988  -0.50345  -0.46390  -0.43236  -0.41888
 Alpha  occ. eigenvalues --   -0.39406  -0.34833  -0.34738  -0.32505  -0.25218
 Alpha  occ. eigenvalues --   -0.23670
 Alpha virt. eigenvalues --   -0.01903  -0.00112   0.06919   0.11927   0.13663
 Alpha virt. eigenvalues --    0.13823   0.15735   0.16778   0.18506   0.26645
 Alpha virt. eigenvalues --    0.28288   0.29627   0.31165   0.46882   0.49500

 Mulliken charges:
               1
     1  C   -0.076830
     2  C   -0.089131
     3  C   -0.085027
     4  C   -0.063316
     5  C   -0.109516
     6  C   -0.091763
     7  H    0.099630
     8  H    0.091369
     9  H    0.091784
    10  H    0.082744
    11  H    0.084951
    12  H    0.065105
 Sum of Mulliken charges =  -0.00000

 Dipole moment (field-independent basis, Debye):
    X=             -0.0300    Y=              0.0215    Z=              0.0178  Tot=              0.0410
 Quadrupole moment (field-independent basis, Debye-Ang):
   XX=            -31.1002   YY=            -32.3229   ZZ=            -39.0706
   XY=              0.2632   XZ=              0.0660   YZ=             -0.8049

 Normal termination of Gaussian 16 at Fri Nov 10 21:36:30 2023.
