 Gaussian 16, Revision B.01,
 Gaussian 16:  EM64L-G16RevB.01 20-Dec-2017

 ---------------------------------
 # TD=(NStates=1) B3LYP/6-31G(d,p)
 ---------------------------------

 -------
 EMISPCT
 -------
 Symbolic Z-matrix:
 Charge =  0 Multiplicity = 1

                         Standard orientation:
 ---------------------------------------------------------------------
 Center     Atomic      Atomic             Coordinates (Angstroms)
 Number     Number       Type             X           Y           Z
 ---------------------------------------------------------------------
      1          6           0       -1.311257    0.600451   -0.016855
      2          6           0       -1.230012   -0.807581   -0.023338
      3          6           0        0.133973   -1.395021   -0.000439
      4          6           0        1.322728   -0.640868    0.022499
      5          6           0        1.178667    0.785197    0.021755
      6          6           0       -0.085786    1.443803   -0.064980
      7          1           0       -2.385770    1.025155    0.110110
      8          1           0       -0.162680    2.532096   -0.022711
      9          1           0        2.099301    1.572367    0.150879
     10          1           0        2.251448   -1.130035    0.082782
     11          1           0        0.317151   -2.505966   -0.326691
     12          1           0       -2.169325   -1.409495    0.373778
 ---------------------------------------------------------------------

 SCF Done:  E(RB3LYP) =  -232.205439453     A.U. after   12 cycles

 Excitation energies and oscillator strengths:

 Excited State   1:      Singlet-A      5.0187 eV  247.05 nm  f=0.0000  <S**2>=0.000
      20 -> 22         0.50670
      21 -> 23         0.49231
 This state for optimization and/or second-order correction.
 Total Energy, E(TD-HF/TD-DFT) =  -232.021006194
 Copying the excited state density for this state as the 1-particle RhoCI density.

 The electronic state is 1-A.
 Alpha  occ. eigenvalues --  -10.21284 -10.21033 -10.20959 -10.20873 -10.20634
 Alpha  occ. eigenvalues --  -10.19767  -0.82870  -0.73540  -0.72382  -0.59106
 Alpha  occ. eigenvalues --   -0.58260  -0.50192  -0.45227  -0.42729  -0.41711
 Alpha  occ. eigenvalues --   -0.39955  -0.35807  -0.33512  -0.32223  -0.24890
 Alpha  occ. eigenvalues --   -0.23854
 Alpha virt. eigenvalues --   -0.01976  -0.00777   0.07333   0.10753   0.12415
 Alpha virt. eigenvalues --    0.13970   0.15602   0.16485   0.17161   0.26187
 Alpha virt. eigenvalues --    0.27155   0.30178   0.30409   0.44875   0.48354

 Mulliken charges:
               1
     1  C   -0.091011
     2  C   -0.098647
     3  C   -0.106683
     4  C   -0.069200
     5  C   -0.088752
     6  C   -0.087151
     7  H    0.088286
     8  H    0.097821
     9  H    0.076825
    10  H    0.098895
    11  H    0.083109
    12  H    0.096509
 Sum of Mulliken charges =  -0.00000

 Dipole moment (field-independent basis, Debye):
    X=              0.0752    Y=              0.1366    Z=              0.2422  Tot=              0.2881
 Quadrupole moment (field-independent basis, Debye-Ang):
   XX=            -31.5847   YY=            -32.0240   ZZ=            -39.1614
   XY=             -0.4235   XZ=             -0.6072   YZ=              0.3250

 Normal termination of Gaussian 16 at Fri Nov 10 22:47:45 2023.
