 Gaussian 16, Revision B.01,
 Gaussian 16:  EM64L-G16RevB.01 20-Dec-2017

 ---------------------------------
 # TD=(NStates=1) B3LYP/6-31G(d,p)
 ---------------------------------

 -------
 EMISPCT
 -------
 Symbolic Z-matrix:
 Charge =  0 Multiplicity = 1

                         Standard orientation:
 ---------------------------------------------------------------------
 Center     Atomic      Atomic             Coordinates (Angstroms)
 Number     Number       Type             X           Y           Z
 ---------------------------------------------------------------------
      1          6           0       -0.054360    1.439515    0.084111
      2          6           0        1.221344    0.723976   -0.056986
      3          6           0        1.337473   -0.660127    0.065156
      4          6           0        0.041918   -1.335230   -0.056360
      5          6           0       -1.303736   -0.796505   -0.130631
      6          6           0       -1.325007    0.643859    0.063823
      7          1           0        0.088521    2.640317   -0.311716
      8          1           0       -2.337799    1.088464    0.436385
      9          1           0       -2.101754   -1.332753   -0.069637
     10          1           0        0.253723   -2.505208    0.023552
     11          1           0        2.373639   -1.316920    0.517453
     12          1           0        2.217876    1.333172   -0.410718
 ---------------------------------------------------------------------

 SCF Done:  E(RB3LYP) =  -232.129672902     A.U. after   14 cycles

 Excitation energies and oscillator strengths:

 Excited State   1:      Singlet-A      4.6355 eV  267.47 nm  f=0.0041  <S**2>=0.000
      20 -> 22         0.40478
      20 -> 23         0.22202
      21 -> 22        -0.36588
      21 -> 23         0.39041
 This state for optimization and/or second-order correction.
 Total Energy, E(TD-HF/TD-DFT) =  -231.959321157
 Copying the excited state density for this state as the 1-particle RhoCI density.

 The electronic state is 1-A.
 Alpha  occ. eigenvalues --  -10.22365 -10.22296 -10.21941 -10.21723 -10.21384
 Alpha  occ. eigenvalues --  -10.20165  -0.82691  -0.74152  -0.71142  -0.59253
 Alpha  occ. eigenvalues --   -0.58004  -0.49599  -0.45076  -0.42585  -0.41399
 Alpha  occ. eigenvalues --   -0.38413  -0.36427  -0.32355  -0.31614  -0.24709
 Alpha  occ. eigenvalues --   -0.23480
 Alpha virt. eigenvalues --   -0.02991  -0.01802   0.05383   0.07766   0.11115
 Alpha virt. eigenvalues --    0.12228   0.14461   0.14826   0.18043   0.24101
 Alpha virt. eigenvalues --    0.26759   0.28787   0.31967   0.44285   0.44342

 Mulliken charges:
               1
     1  C   -0.097887
     2  C   -0.087335
     3  C   -0.078974
     4  C   -0.095958
     5  C   -0.043512
     6  C   -0.115877
     7  H    0.087977
     8  H    0.095204
     9  H    0.089779
    10  H    0.073311
    11  H    0.093196
    12  H    0.080075
 Sum of Mulliken charges =  -0.00000

 Dipole moment (field-independent basis, Debye):
    X=             -0.1276    Y=             -0.3238    Z=              0.1014  Tot=              0.3624
 Quadrupole moment (field-independent basis, Debye-Ang):
   XX=            -31.3093   YY=            -33.0940   ZZ=            -39.1811
   XY=              0.2462   XZ=             -0.3839   YZ=             -1.2532

 Normal termination of Gaussian 16 at Fri Nov 10 22:04:13 2023.
