 Gaussian 16, Revision B.01,
 Gaussian 16:  EM64L-G16RevB.01 20-Dec-2017

 ---------------------------------
 # TD=(NStates=1) B3LYP/6-31G(d,p)
 ---------------------------------

 -------
 EMISPCT
 -------
 Symbolic Z-matrix:
 Charge =  0 Multiplicity = 1

                         Standard orientation:
 ---------------------------------------------------------------------
 Center     Atomic      Atomic             Coordinates (Angstroms)
 Number     Number       Type             X           Y           Z
 ---------------------------------------------------------------------
      1          6           0       -1.448702   -0.043515   -0.049378
      2          6           0       -0.708033   -1.207241   -0.028917
      3          6           0        0.672825   -1.218461    0.088385
      4          6           0        1.480637    0.043029    0.000571
      5          6           0        0.715296    1.210635   -0.091783
      6          6           0       -0.729818    1.213301    0.037396
      7          1           0       -2.573488    0.110051    0.011349
      8          1           0       -1.374587    2.121195    0.246550
      9          1           0        1.321732    2.094126    0.014346
     10          1           0        2.731570   -0.121528    0.119285
     11          1           0        1.369782   -2.126856   -0.186149
     12          1           0       -1.368242   -2.063466    0.056977
 ---------------------------------------------------------------------

 SCF Done:  E(RB3LYP) =  -232.195657668     A.U. after   13 cycles

 Excitation energies and oscillator strengths:

 Excited State   1:      Singlet-A      5.1356 eV  241.42 nm  f=0.0005  <S**2>=0.000
      20 -> 22        -0.48962
      21 -> 23         0.50355
 This state for optimization and/or second-order correction.
 Total Energy, E(TD-HF/TD-DFT) =  -232.006927022
 Copying the excited state density for this state as the 1-particle RhoCI density.

 The electronic state is 1-A.
 Alpha  occ. eigenvalues --  -10.21732 -10.20704 -10.20462 -10.19922 -10.19874
 Alpha  occ. eigenvalues --  -10.19276  -0.83628  -0.74289  -0.72227  -0.59760
 Alpha  occ. eigenvalues --   -0.58150  -0.50218  -0.45445  -0.43779  -0.41455
 Alpha  occ. eigenvalues --   -0.38873  -0.35660  -0.34775  -0.31264  -0.25436
 Alpha  occ. eigenvalues --   -0.23505
 Alpha virt. eigenvalues --   -0.01976  -0.00056   0.05940   0.10963   0.13066
 Alpha virt. eigenvalues --    0.14120   0.15733   0.16616   0.18039   0.25446
 Alpha virt. eigenvalues --    0.27864   0.30353   0.32811   0.46122   0.49731

 Mulliken charges:
               1
     1  C   -0.086891
     2  C   -0.074416
     3  C   -0.102403
     4  C   -0.094458
     5  C   -0.090567
     6  C   -0.093273
     7  H    0.093763
     8  H    0.093163
     9  H    0.087430
    10  H    0.093268
    11  H    0.083907
    12  H    0.090476
 Sum of Mulliken charges =  -0.00000

 Dipole moment (field-independent basis, Debye):
    X=             -0.1334    Y=              0.1516    Z=              0.1557  Tot=              0.2550
 Quadrupole moment (field-independent basis, Debye-Ang):
   XX=            -30.3682   YY=            -33.1570   ZZ=            -39.1142
   XY=             -0.4308   XZ=             -0.3426   YZ=              0.7042

 Normal termination of Gaussian 16 at Fri Nov 10 20:45:13 2023.
