 Gaussian 16, Revision B.01,
 Gaussian 16:  EM64L-G16RevB.01 20-Dec-2017

 ---------------------------------
 # TD=(NStates=1) B3LYP/6-31G(d,p)
 ---------------------------------

 -------
 EMISPCT
 -------
 Symbolic Z-matrix:
 Charge =  0 Multiplicity = 1

                         Standard orientation:
 ---------------------------------------------------------------------
 Center     Atomic      Atomic             Coordinates (Angstroms)
 Number     Number       Type             X           Y           Z
 ---------------------------------------------------------------------
      1          6           0       -0.938262   -1.101097   -0.021683
      2          6           0       -1.423067    0.308285    0.046323
      3          6           0       -0.427937    1.331136   -0.077003
      4          6           0        0.970957    1.041684    0.010957
      5          6           0        1.365897   -0.277550   -0.000873
      6          6           0        0.417801   -1.337389    0.027505
      7          1           0       -1.617636   -1.844593   -0.092836
      8          1           0        1.011542   -2.155018   -0.116870
      9          1           0        2.366412   -0.520574   -0.017964
     10          1           0        1.781814    1.803052    0.273775
     11          1           0       -0.795308    2.326242   -0.240350
     12          1           0       -2.539156    0.600476    0.282888
 ---------------------------------------------------------------------

 SCF Done:  E(RB3LYP) =  -232.208800959     A.U. after   13 cycles

 Excitation energies and oscillator strengths:

 Excited State   1:      Singlet-A      5.1088 eV  242.69 nm  f=0.0001  <S**2>=0.000
      20 -> 22        -0.49079
      21 -> 23         0.50629
 This state for optimization and/or second-order correction.
 Total Energy, E(TD-HF/TD-DFT) =  -232.021057767
 Copying the excited state density for this state as the 1-particle RhoCI density.

 The electronic state is 1-A.
 Alpha  occ. eigenvalues --  -10.21061 -10.19626 -10.19465 -10.19272 -10.18072
 Alpha  occ. eigenvalues --  -10.17806  -0.83728  -0.73873  -0.73499  -0.60804
 Alpha  occ. eigenvalues --   -0.58911  -0.51631  -0.46498  -0.44159  -0.41408
 Alpha  occ. eigenvalues --   -0.40519  -0.35815  -0.35055  -0.32231  -0.24369
 Alpha  occ. eigenvalues --   -0.23730
 Alpha virt. eigenvalues --   -0.00920  -0.00420   0.08778   0.13443   0.13826
 Alpha virt. eigenvalues --    0.15607   0.16955   0.17502   0.20970   0.26980
 Alpha virt. eigenvalues --    0.29110   0.30398   0.32885   0.46524   0.49553

 Mulliken charges:
               1
     1  C   -0.099140
     2  C   -0.102554
     3  C   -0.098410
     4  C   -0.077850
     5  C   -0.098389
     6  C   -0.045238
     7  H    0.086206
     8  H    0.080907
     9  H    0.081641
    10  H    0.088175
    11  H    0.088939
    12  H    0.095713
 Sum of Mulliken charges =  -0.00000

 Dipole moment (field-independent basis, Debye):
    X=              0.0735    Y=              0.0085    Z=              0.0429  Tot=              0.0856
 Quadrupole moment (field-independent basis, Debye-Ang):
   XX=            -30.7567   YY=            -32.2892   ZZ=            -38.5311
   XY=             -0.4351   XZ=             -0.0652   YZ=              0.4481

 Normal termination of Gaussian 16 at Fri Nov 10 22:16:26 2023.
