 Gaussian 16, Revision B.01,
 Gaussian 16:  EM64L-G16RevB.01 20-Dec-2017

 ---------------------------------
 # TD=(NStates=1) B3LYP/6-31G(d,p)
 ---------------------------------

 -------
 EMISPCT
 -------
 Symbolic Z-matrix:
 Charge =  0 Multiplicity = 1

                         Standard orientation:
 ---------------------------------------------------------------------
 Center     Atomic      Atomic             Coordinates (Angstroms)
 Number     Number       Type             X           Y           Z
 ---------------------------------------------------------------------
      1          6           0       -0.393976    1.347483   -0.001523
      2          6           0        0.952156    1.018930    0.032396
      3          6           0        1.439245   -0.326570    0.059309
      4          6           0        0.434499   -1.360446   -0.031516
      5          6           0       -0.952167   -1.042070   -0.108401
      6          6           0       -1.491869    0.279117    0.037587
      7          1           0       -0.615998    2.429054   -0.119817
      8          1           0       -2.405024    0.668757    0.285522
      9          1           0       -1.804999   -1.785823   -0.072519
     10          1           0        0.813194   -2.370870    0.326698
     11          1           0        2.544600   -0.317698   -0.149969
     12          1           0        1.540897    1.877922   -0.197026
 ---------------------------------------------------------------------

 SCF Done:  E(RB3LYP) =  -232.196596790     A.U. after   13 cycles

 Excitation energies and oscillator strengths:

 Excited State   1:      Singlet-A      4.8961 eV  253.23 nm  f=0.0038  <S**2>=0.000
      20 -> 22         0.47839
      21 -> 22         0.21181
      21 -> 23        -0.46528
 This state for optimization and/or second-order correction.
 Total Energy, E(TD-HF/TD-DFT) =  -232.016667753
 Copying the excited state density for this state as the 1-particle RhoCI density.

 The electronic state is 1-A.
 Alpha  occ. eigenvalues --  -10.20968 -10.20881 -10.20352 -10.20299 -10.19614
 Alpha  occ. eigenvalues --  -10.18386  -0.82905  -0.73798  -0.72628  -0.60528
 Alpha  occ. eigenvalues --   -0.58403  -0.50542  -0.46622  -0.43714  -0.41393
 Alpha  occ. eigenvalues --   -0.40197  -0.35314  -0.34367  -0.31283  -0.24999
 Alpha  occ. eigenvalues --   -0.23142
 Alpha virt. eigenvalues --   -0.02614  -0.00332   0.08526   0.12345   0.13680
 Alpha virt. eigenvalues --    0.13877   0.15705   0.16928   0.19923   0.25279
 Alpha virt. eigenvalues --    0.27888   0.28956   0.31907   0.47300   0.48220

 Mulliken charges:
               1
     1  C   -0.106107
     2  C   -0.069537
     3  C   -0.099079
     4  C   -0.107422
     5  C   -0.095963
     6  C   -0.081097
     7  H    0.081216
     8  H    0.104192
     9  H    0.090162
    10  H    0.099727
    11  H    0.101579
    12  H    0.082328
 Sum of Mulliken charges =  -0.00000

 Dipole moment (field-independent basis, Debye):
    X=             -0.1405    Y=              0.2681    Z=              0.0754  Tot=              0.3119
 Quadrupole moment (field-independent basis, Debye-Ang):
   XX=            -31.1196   YY=            -32.3160   ZZ=            -38.8339
   XY=             -0.0414   XZ=             -0.8390   YZ=             -0.8845

 Normal termination of Gaussian 16 at Fri Nov 10 20:39:11 2023.
