 Gaussian 16, Revision B.01,
 Gaussian 16:  EM64L-G16RevB.01 20-Dec-2017

 ---------------------------------
 # TD=(NStates=1) B3LYP/6-31G(d,p)
 ---------------------------------

 -------
 EMISPCT
 -------
 Symbolic Z-matrix:
 Charge =  0 Multiplicity = 1

                         Standard orientation:
 ---------------------------------------------------------------------
 Center     Atomic      Atomic             Coordinates (Angstroms)
 Number     Number       Type             X           Y           Z
 ---------------------------------------------------------------------
      1          6           0       -0.022167   -1.355693   -0.032214
      2          6           0       -1.276846   -0.729275    0.087532
      3          6           0       -1.270285    0.712962   -0.071560
      4          6           0        0.003572    1.414566    0.018759
      5          6           0        1.259710    0.731899   -0.000802
      6          6           0        1.247943   -0.767170   -0.025602
      7          1           0        0.049581   -2.426220   -0.125269
      8          1           0        2.272761   -1.294013    0.098218
      9          1           0        2.166779    1.229934    0.084314
     10          1           0        0.054321    2.455837    0.049145
     11          1           0       -2.062224    1.301731   -0.076269
     12          1           0       -2.132783   -1.311002    0.113188
 ---------------------------------------------------------------------

 SCF Done:  E(RB3LYP) =  -232.215523362     A.U. after   13 cycles

 Excitation energies and oscillator strengths:

 Excited State   1:      Singlet-A      5.0461 eV  245.70 nm  f=0.0033  <S**2>=0.000
      20 -> 22         0.52916
      21 -> 22        -0.14520
      21 -> 23        -0.43478
 This state for optimization and/or second-order correction.
 Total Energy, E(TD-HF/TD-DFT) =  -232.030081813
 Copying the excited state density for this state as the 1-particle RhoCI density.

 The electronic state is 1-A.
 Alpha  occ. eigenvalues --  -10.20369 -10.19565 -10.19396 -10.19301 -10.19138
 Alpha  occ. eigenvalues --  -10.18927  -0.82853  -0.73607  -0.73030  -0.60885
 Alpha  occ. eigenvalues --   -0.58912  -0.51505  -0.47664  -0.42981  -0.41922
 Alpha  occ. eigenvalues --   -0.40934  -0.35527  -0.34739  -0.32405  -0.24229
 Alpha  occ. eigenvalues --   -0.23713
 Alpha virt. eigenvalues --   -0.01712   0.00127   0.09595   0.13550   0.14710
 Alpha virt. eigenvalues --    0.15504   0.17650   0.18247   0.19391   0.26912
 Alpha virt. eigenvalues --    0.28644   0.29297   0.30992   0.47267   0.48268

 Mulliken charges:
               1
     1  C   -0.087942
     2  C   -0.074888
     3  C   -0.083847
     4  C   -0.087634
     5  C   -0.088905
     6  C   -0.095300
     7  H    0.079892
     8  H    0.094923
     9  H    0.085354
    10  H    0.084295
    11  H    0.082039
    12  H    0.092014
 Sum of Mulliken charges =  -0.00000

 Dipole moment (field-independent basis, Debye):
    X=              0.0021    Y=              0.0645    Z=              0.1001  Tot=              0.1191
 Quadrupole moment (field-independent basis, Debye-Ang):
   XX=            -30.8059   YY=            -31.5458   ZZ=            -38.8111
   XY=              0.0215   XZ=              0.2838   YZ=              0.0914

 Normal termination of Gaussian 16 at Fri Nov 10 22:27:26 2023.
