 Gaussian 16, Revision B.01,
 Gaussian 16:  EM64L-G16RevB.01 20-Dec-2017

 ---------------------------------
 # TD=(NStates=1) B3LYP/6-31G(d,p)
 ---------------------------------

 -------
 EMISPCT
 -------
 Symbolic Z-matrix:
 Charge =  0 Multiplicity = 1

                         Standard orientation:
 ---------------------------------------------------------------------
 Center     Atomic      Atomic             Coordinates (Angstroms)
 Number     Number       Type             X           Y           Z
 ---------------------------------------------------------------------
      1          6           0       -0.811918   -1.113362    0.070065
      2          6           0        0.614579   -1.260869   -0.102953
      3          6           0        1.440976   -0.131677    0.016173
      4          6           0        0.839648    1.126764   -0.001786
      5          6           0       -0.590222    1.259809    0.006710
      6          6           0       -1.456889    0.100440   -0.128848
      7          1           0       -1.647466   -1.990386    0.431961
      8          1           0       -2.605577    0.178969    0.009543
      9          1           0       -1.117805    2.246658    0.090484
     10          1           0        1.375226    2.066182    0.287132
     11          1           0        2.584407   -0.190030   -0.071316
     12          1           0        1.194169   -2.198017    0.096031
 ---------------------------------------------------------------------

 SCF Done:  E(RB3LYP) =  -232.204374944     A.U. after   13 cycles

 Excitation energies and oscillator strengths:

 Excited State   1:      Singlet-A      5.1188 eV  242.21 nm  f=0.0047  <S**2>=0.000
      20 -> 22         0.36855
      20 -> 23        -0.24031
      21 -> 22         0.36238
      21 -> 23         0.41770
 This state for optimization and/or second-order correction.
 Total Energy, E(TD-HF/TD-DFT) =  -232.016263720
 Copying the excited state density for this state as the 1-particle RhoCI density.

 The electronic state is 1-A.
 Alpha  occ. eigenvalues --  -10.21431 -10.20446 -10.20288 -10.20229 -10.20130
 Alpha  occ. eigenvalues --  -10.19585  -0.84021  -0.74239  -0.72559  -0.59533
 Alpha  occ. eigenvalues --   -0.58167  -0.50210  -0.44844  -0.43375  -0.41444
 Alpha  occ. eigenvalues --   -0.39546  -0.36184  -0.34116  -0.32042  -0.25245
 Alpha  occ. eigenvalues --   -0.23825
 Alpha virt. eigenvalues --   -0.01430  -0.00600   0.06250   0.10722   0.12795
 Alpha virt. eigenvalues --    0.13507   0.15575   0.17057   0.17530   0.27895
 Alpha virt. eigenvalues --    0.28774   0.30436   0.31395   0.45523   0.47164

 Mulliken charges:
               1
     1  C   -0.078273
     2  C   -0.101883
     3  C   -0.085973
     4  C   -0.081258
     5  C   -0.096526
     6  C   -0.085004
     7  H    0.073630
     8  H    0.092489
     9  H    0.089575
    10  H    0.086943
    11  H    0.094453
    12  H    0.091827
 Sum of Mulliken charges =  -0.00000

 Dipole moment (field-independent basis, Debye):
    X=             -0.0437    Y=              0.1825    Z=              0.4921  Tot=              0.5266
 Quadrupole moment (field-independent basis, Debye-Ang):
   XX=            -30.8971   YY=            -33.0894   ZZ=            -38.9806
   XY=             -0.4101   XZ=             -0.3583   YZ=             -0.1041

 Normal termination of Gaussian 16 at Fri Nov 10 20:23:46 2023.
