 Gaussian 16, Revision B.01,
 Gaussian 16:  EM64L-G16RevB.01 20-Dec-2017

 ---------------------------------
 # TD=(NStates=1) B3LYP/6-31G(d,p)
 ---------------------------------

 -------
 EMISPCT
 -------
 Symbolic Z-matrix:
 Charge =  0 Multiplicity = 1

                         Standard orientation:
 ---------------------------------------------------------------------
 Center     Atomic      Atomic             Coordinates (Angstroms)
 Number     Number       Type             X           Y           Z
 ---------------------------------------------------------------------
      1          6           0       -1.447688   -0.336895    0.037645
      2          6           0       -0.407550   -1.361339   -0.064325
      3          6           0        1.085669   -0.986786   -0.014264
      4          6           0        1.407916    0.294583    0.017880
      5          6           0        0.382423    1.329892    0.063208
      6          6           0       -1.031168    1.024604   -0.097770
      7          1           0       -2.462519   -0.670847    0.314193
      8          1           0       -1.684727    1.847759   -0.075141
      9          1           0        0.730681    2.363271    0.060128
     10          1           0        2.463997    0.620104   -0.076446
     11          1           0        1.869212   -1.539020    0.094832
     12          1           0       -0.854259   -2.405623    0.028187
 ---------------------------------------------------------------------

 SCF Done:  E(RB3LYP) =  -232.195376728     A.U. after   14 cycles

 Excitation energies and oscillator strengths:

 Excited State   1:      Singlet-A      4.9803 eV  248.95 nm  f=0.0009  <S**2>=0.000
      20 -> 22         0.49510
      21 -> 23        -0.49397
 This state for optimization and/or second-order correction.
 Total Energy, E(TD-HF/TD-DFT) =  -232.012353184
 Copying the excited state density for this state as the 1-particle RhoCI density.

 The electronic state is 1-A.
 Alpha  occ. eigenvalues --  -10.21342 -10.20449 -10.19783 -10.19733 -10.18814
 Alpha  occ. eigenvalues --  -10.18591  -0.82976  -0.75172  -0.71464  -0.60883
 Alpha  occ. eigenvalues --   -0.57964  -0.51277  -0.47096  -0.43175  -0.42449
 Alpha  occ. eigenvalues --   -0.39452  -0.34525  -0.34489  -0.33781  -0.25067
 Alpha  occ. eigenvalues --   -0.22799
 Alpha virt. eigenvalues --   -0.02125   0.00004   0.09117   0.13008   0.13556
 Alpha virt. eigenvalues --    0.15165   0.15892   0.17915   0.19886   0.25823
 Alpha virt. eigenvalues --    0.28103   0.29228   0.30913   0.45837   0.47353

 Mulliken charges:
               1
     1  C   -0.091380
     2  C   -0.115007
     3  C   -0.050144
     4  C   -0.086434
     5  C   -0.093969
     6  C   -0.086693
     7  H    0.100798
     8  H    0.089133
     9  H    0.084010
    10  H    0.088457
    11  H    0.074336
    12  H    0.086892
 Sum of Mulliken charges =  -0.00000

 Dipole moment (field-independent basis, Debye):
    X=              0.0461    Y=              0.1048    Z=              0.2327  Tot=              0.2593
 Quadrupole moment (field-independent basis, Debye-Ang):
   XX=            -30.5370   YY=            -32.1916   ZZ=            -38.8615
   XY=              0.2790   XZ=             -0.5494   YZ=             -0.4272

 Normal termination of Gaussian 16 at Fri Nov 10 22:46:57 2023.
