 Gaussian 16, Revision B.01,
 Gaussian 16:  EM64L-G16RevB.01 20-Dec-2017

 ---------------------------------
 # TD=(NStates=1) B3LYP/6-31G(d,p)
 ---------------------------------

 -------
 EMISPCT
 -------
 Symbolic Z-matrix:
 Charge =  0 Multiplicity = 1

                         Standard orientation:
 ---------------------------------------------------------------------
 Center     Atomic      Atomic             Coordinates (Angstroms)
 Number     Number       Type             X           Y           Z
 ---------------------------------------------------------------------
      1          6           0       -1.280723    0.638922    0.034395
      2          6           0       -1.260723   -0.787071    0.027597
      3          6           0        0.091694   -1.373437   -0.130677
      4          6           0        1.351924   -0.633821   -0.037373
      5          6           0        1.241060    0.784720    0.065670
      6          6           0       -0.094191    1.393091   -0.097016
      7          1           0       -2.270278    1.120313   -0.097534
      8          1           0       -0.172694    2.482866    0.265009
      9          1           0        2.144909    1.252264   -0.079034
     10          1           0        2.046466   -1.294649    0.343198
     11          1           0        0.013448   -2.350854    0.194913
     12          1           0       -2.056103   -1.344374    0.197868
 ---------------------------------------------------------------------

 SCF Done:  E(RB3LYP) =  -232.179865156     A.U. after   13 cycles

 Excitation energies and oscillator strengths:

 Excited State   1:      Singlet-A      4.7536 eV  260.82 nm  f=0.0003  <S**2>=0.000
      20 -> 22         0.52338
      21 -> 23        -0.46800
 This state for optimization and/or second-order correction.
 Total Energy, E(TD-HF/TD-DFT) =  -232.005175101
 Copying the excited state density for this state as the 1-particle RhoCI density.

 The electronic state is 1-A.
 Alpha  occ. eigenvalues --  -10.20559 -10.20029 -10.19856 -10.19509 -10.19200
 Alpha  occ. eigenvalues --  -10.19169  -0.82866  -0.74289  -0.72718  -0.61006
 Alpha  occ. eigenvalues --   -0.59149  -0.51059  -0.48311  -0.42760  -0.42382
 Alpha  occ. eigenvalues --   -0.39422  -0.35982  -0.34021  -0.31866  -0.24455
 Alpha  occ. eigenvalues --   -0.23778
 Alpha virt. eigenvalues --   -0.02641  -0.01552   0.08899   0.12547   0.14564
 Alpha virt. eigenvalues --    0.15709   0.16643   0.17662   0.20617   0.25940
 Alpha virt. eigenvalues --    0.27950   0.28893   0.29833   0.44330   0.48020

 Mulliken charges:
               1
     1  C   -0.082749
     2  C   -0.072960
     3  C   -0.107895
     4  C   -0.091499
     5  C   -0.096640
     6  C   -0.105134
     7  H    0.089296
     8  H    0.089797
     9  H    0.101147
    10  H    0.104705
    11  H    0.084130
    12  H    0.087801
 Sum of Mulliken charges =  -0.00000

 Dipole moment (field-independent basis, Debye):
    X=             -0.1775    Y=             -0.2364    Z=              0.5682  Tot=              0.6406
 Quadrupole moment (field-independent basis, Debye-Ang):
   XX=            -31.2344   YY=            -32.4549   ZZ=            -38.5271
   XY=              0.2843   XZ=              0.2269   YZ=             -0.6951

 Normal termination of Gaussian 16 at Fri Nov 10 20:28:52 2023.
