 Gaussian 16, Revision B.01,
 Gaussian 16:  EM64L-G16RevB.01 20-Dec-2017

 ---------------------------------
 # TD=(NStates=1) B3LYP/6-31G(d,p)
 ---------------------------------

 -------
 EMISPCT
 -------
 Symbolic Z-matrix:
 Charge =  0 Multiplicity = 1

                         Standard orientation:
 ---------------------------------------------------------------------
 Center     Atomic      Atomic             Coordinates (Angstroms)
 Number     Number       Type             X           Y           Z
 ---------------------------------------------------------------------
      1          6           0        1.200678   -0.890682   -0.041459
      2          6           0        1.394400    0.596882    0.126702
      3          6           0        0.168545    1.404808   -0.003494
      4          6           0       -1.122319    0.880165   -0.079920
      5          6           0       -1.402087   -0.582926   -0.031170
      6          6           0       -0.140889   -1.388683   -0.008900
      7          1           0        1.945195   -1.562388   -0.068705
      8          1           0       -0.362095   -2.463273    0.146805
      9          1           0       -2.466204   -0.988685    0.237693
     10          1           0       -2.108134    1.443040    0.109778
     11          1           0        0.221700    2.515855    0.068367
     12          1           0        2.179575    0.938066   -0.264491
 ---------------------------------------------------------------------

 SCF Done:  E(RB3LYP) =  -232.168066128     A.U. after   13 cycles

 Excitation energies and oscillator strengths:

 Excited State   1:      Singlet-A      4.6595 eV  266.09 nm  f=0.0115  <S**2>=0.000
      20 -> 22         0.58132
      21 -> 22        -0.12088
      21 -> 23        -0.37603
 This state for optimization and/or second-order correction.
 Total Energy, E(TD-HF/TD-DFT) =  -231.996833560
 Copying the excited state density for this state as the 1-particle RhoCI density.

 The electronic state is 1-A.
 Alpha  occ. eigenvalues --  -10.21939 -10.20561 -10.20464 -10.20438 -10.20100
 Alpha  occ. eigenvalues --  -10.19431  -0.82020  -0.73327  -0.72510  -0.60948
 Alpha  occ. eigenvalues --   -0.58400  -0.50334  -0.47302  -0.43202  -0.40999
 Alpha  occ. eigenvalues --   -0.40193  -0.36455  -0.33269  -0.31578  -0.24381
 Alpha  occ. eigenvalues --   -0.23645
 Alpha virt. eigenvalues --   -0.03804  -0.00410   0.08288   0.11182   0.13780
 Alpha virt. eigenvalues --    0.14350   0.16828   0.17476   0.18760   0.25244
 Alpha virt. eigenvalues --    0.25866   0.28342   0.30470   0.44636   0.47712

 Mulliken charges:
               1
     1  C   -0.091722
     2  C   -0.093816
     3  C   -0.102303
     4  C   -0.077742
     5  C   -0.105829
     6  C   -0.087536
     7  H    0.093998
     8  H    0.080347
     9  H    0.107640
    10  H    0.084425
    11  H    0.091394
    12  H    0.101144
 Sum of Mulliken charges =  -0.00000

 Dipole moment (field-independent basis, Debye):
    X=             -0.2072    Y=             -0.1722    Z=              0.0927  Tot=              0.2849
 Quadrupole moment (field-independent basis, Debye-Ang):
   XX=            -30.8997   YY=            -32.2290   ZZ=            -39.0354
   XY=             -0.0008   XZ=             -1.4908   YZ=             -0.3664

 Normal termination of Gaussian 16 at Fri Nov 10 21:20:59 2023.
