 Gaussian 16, Revision B.01,
 Gaussian 16:  EM64L-G16RevB.01 20-Dec-2017

 ---------------------------------
 # TD=(NStates=1) B3LYP/6-31G(d,p)
 ---------------------------------

 -------
 EMISPCT
 -------
 Symbolic Z-matrix:
 Charge =  0 Multiplicity = 1

                         Standard orientation:
 ---------------------------------------------------------------------
 Center     Atomic      Atomic             Coordinates (Angstroms)
 Number     Number       Type             X           Y           Z
 ---------------------------------------------------------------------
      1          6           0       -1.302951   -0.552033   -0.109657
      2          6           0       -0.180582   -1.334795    0.085710
      3          6           0        1.156790   -0.813470   -0.035030
      4          6           0        1.313709    0.570422    0.008247
      5          6           0        0.107101    1.415569    0.015218
      6          6           0       -1.147438    0.770815   -0.011739
      7          1           0       -2.340070   -1.147927    0.129395
      8          1           0       -1.942622    1.355927   -0.050040
      9          1           0        0.198167    2.380358    0.250525
     10          1           0        2.370949    0.889728   -0.098814
     11          1           0        2.125683   -1.442556   -0.127085
     12          1           0       -0.091872   -2.374584    0.179525
 ---------------------------------------------------------------------

 SCF Done:  E(RB3LYP) =  -232.198968639     A.U. after   13 cycles

 Excitation energies and oscillator strengths:

 Excited State   1:      Singlet-A      5.3204 eV  233.04 nm  f=0.0011  <S**2>=0.000
      20 -> 22        -0.48036
      21 -> 22         0.13600
      21 -> 23         0.49334
 This state for optimization and/or second-order correction.
 Total Energy, E(TD-HF/TD-DFT) =  -232.003449073
 Copying the excited state density for this state as the 1-particle RhoCI density.

 The electronic state is 1-A.
 Alpha  occ. eigenvalues --  -10.19614 -10.19551 -10.19444 -10.18872 -10.18689
 Alpha  occ. eigenvalues --  -10.17850  -0.84729  -0.74757  -0.73414  -0.61160
 Alpha  occ. eigenvalues --   -0.58912  -0.51634  -0.46256  -0.44012  -0.41815
 Alpha  occ. eigenvalues --   -0.40691  -0.36349  -0.33738  -0.32612  -0.25408
 Alpha  occ. eigenvalues --   -0.23776
 Alpha virt. eigenvalues --   -0.01220   0.00355   0.08255   0.11769   0.14467
 Alpha virt. eigenvalues --    0.15998   0.17154   0.18835   0.19324   0.28271
 Alpha virt. eigenvalues --    0.29953   0.31391   0.31976   0.46388   0.48221

 Mulliken charges:
               1
     1  C   -0.085690
     2  C   -0.077828
     3  C   -0.095032
     4  C   -0.089804
     5  C   -0.085713
     6  C   -0.067614
     7  H    0.078923
     8  H    0.081110
     9  H    0.086326
    10  H    0.084840
    11  H    0.086296
    12  H    0.084185
 Sum of Mulliken charges =  -0.00000

 Dipole moment (field-independent basis, Debye):
    X=              0.1243    Y=              0.0057    Z=              0.2002  Tot=              0.2357
 Quadrupole moment (field-independent basis, Debye-Ang):
   XX=            -31.4322   YY=            -31.9599   ZZ=            -38.4588
   XY=             -0.4991   XZ=             -0.5373   YZ=              0.0724

 Normal termination of Gaussian 16 at Fri Nov 10 20:48:30 2023.
