 Gaussian 16, Revision B.01,
 Gaussian 16:  EM64L-G16RevB.01 20-Dec-2017

 ---------------------------------
 # TD=(NStates=1) B3LYP/6-31G(d,p)
 ---------------------------------

 -------
 EMISPCT
 -------
 Symbolic Z-matrix:
 Charge =  0 Multiplicity = 1

                         Standard orientation:
 ---------------------------------------------------------------------
 Center     Atomic      Atomic             Coordinates (Angstroms)
 Number     Number       Type             X           Y           Z
 ---------------------------------------------------------------------
      1          6           0       -1.012734    0.968190   -0.051941
      2          6           0       -1.460424   -0.474890    0.041674
      3          6           0       -0.299410   -1.339020   -0.071196
      4          6           0        1.039885   -0.964548   -0.038218
      5          6           0        1.390927    0.381429    0.076899
      6          6           0        0.332960    1.379310   -0.012037
      7          1           0       -1.789440    1.795362   -0.185318
      8          1           0        0.443853    2.515273    0.088999
      9          1           0        2.472742    0.733028   -0.007764
     10          1           0        1.830523   -1.641275    0.075069
     11          1           0       -0.388309   -2.410752   -0.021703
     12          1           0       -2.516596   -0.694464    0.379630
 ---------------------------------------------------------------------

 SCF Done:  E(RB3LYP) =  -232.213345521     A.U. after   14 cycles

 Excitation energies and oscillator strengths:

 Excited State   1:      Singlet-A      5.0372 eV  246.14 nm  f=0.0038  <S**2>=0.000
      20 -> 22         0.55670
      21 -> 23        -0.43369
 This state for optimization and/or second-order correction.
 Total Energy, E(TD-HF/TD-DFT) =  -232.028230808
 Copying the excited state density for this state as the 1-particle RhoCI density.

 The electronic state is 1-A.
 Alpha  occ. eigenvalues --  -10.21534 -10.20472 -10.20148 -10.20080 -10.19701
 Alpha  occ. eigenvalues --  -10.18714  -0.83241  -0.73624  -0.72583  -0.60105
 Alpha  occ. eigenvalues --   -0.58117  -0.50638  -0.45898  -0.43400  -0.41082
 Alpha  occ. eigenvalues --   -0.40594  -0.34997  -0.34726  -0.32259  -0.24546
 Alpha  occ. eigenvalues --   -0.23733
 Alpha virt. eigenvalues --   -0.02153   0.00213   0.07858   0.12691   0.13666
 Alpha virt. eigenvalues --    0.14097   0.16065   0.16801   0.18634   0.25357
 Alpha virt. eigenvalues --    0.28270   0.30281   0.31468   0.46484   0.46692

 Mulliken charges:
               1
     1  C   -0.104495
     2  C   -0.099097
     3  C   -0.095064
     4  C   -0.066830
     5  C   -0.101239
     6  C   -0.079169
     7  H    0.081258
     8  H    0.090047
     9  H    0.088344
    10  H    0.092611
    11  H    0.080454
    12  H    0.113179
 Sum of Mulliken charges =  -0.00000

 Dipole moment (field-independent basis, Debye):
    X=             -0.0027    Y=             -0.0272    Z=              0.2532  Tot=              0.2547
 Quadrupole moment (field-independent basis, Debye-Ang):
   XX=            -31.1258   YY=            -31.9834   ZZ=            -38.9726
   XY=             -0.3912   XZ=             -0.5304   YZ=             -0.3753

 Normal termination of Gaussian 16 at Fri Nov 10 21:27:25 2023.
