 Gaussian 16, Revision B.01,
 Gaussian 16:  EM64L-G16RevB.01 20-Dec-2017

 ---------------------------------
 # TD=(NStates=1) B3LYP/6-31G(d,p)
 ---------------------------------

 -------
 EMISPCT
 -------
 Symbolic Z-matrix:
 Charge =  0 Multiplicity = 1

                         Standard orientation:
 ---------------------------------------------------------------------
 Center     Atomic      Atomic             Coordinates (Angstroms)
 Number     Number       Type             X           Y           Z
 ---------------------------------------------------------------------
      1          6           0       -1.127747    0.869571   -0.054774
      2          6           0       -1.322668   -0.521668    0.013816
      3          6           0       -0.213025   -1.349372   -0.030345
      4          6           0        1.084593   -0.883629   -0.050545
      5          6           0        1.293043    0.456052    0.019239
      6          6           0        0.212718    1.437953    0.019979
      7          1           0       -1.827044    1.504668   -0.056434
      8          1           0        0.490329    2.397793   -0.071557
      9          1           0        2.398344    0.950746    0.284800
     10          1           0        2.039666   -1.550280   -0.065284
     11          1           0       -0.241087   -2.419863    0.098803
     12          1           0       -2.421687   -0.936507    0.305446
 ---------------------------------------------------------------------

 SCF Done:  E(RB3LYP) =  -232.191827027     A.U. after   13 cycles

 Excitation energies and oscillator strengths:

 Excited State   1:      Singlet-A      5.3348 eV  232.41 nm  f=0.0004  <S**2>=0.000
      20 -> 22         0.48254
      20 -> 23         0.11035
      21 -> 22        -0.13696
      21 -> 23         0.48556
 This state for optimization and/or second-order correction.
 Total Energy, E(TD-HF/TD-DFT) =  -231.995775777
 Copying the excited state density for this state as the 1-particle RhoCI density.

 The electronic state is 1-A.
 Alpha  occ. eigenvalues --  -10.20370 -10.20089 -10.19269 -10.19148 -10.18918
 Alpha  occ. eigenvalues --  -10.18490  -0.84565  -0.74623  -0.73350  -0.60970
 Alpha  occ. eigenvalues --   -0.59214  -0.51066  -0.46174  -0.44052  -0.42189
 Alpha  occ. eigenvalues --   -0.40061  -0.36124  -0.34509  -0.31960  -0.25046
 Alpha  occ. eigenvalues --   -0.24208
 Alpha virt. eigenvalues --   -0.00857   0.00021   0.07432   0.10727   0.14389
 Alpha virt. eigenvalues --    0.15386   0.17379   0.18042   0.19355   0.28063
 Alpha virt. eigenvalues --    0.29241   0.31249   0.32721   0.46396   0.50388

 Mulliken charges:
               1
     1  C   -0.072618
     2  C   -0.082836
     3  C   -0.091954
     4  C   -0.068498
     5  C   -0.093062
     6  C   -0.076407
     7  H    0.070850
     8  H    0.087931
     9  H    0.063523
    10  H    0.089725
    11  H    0.087273
    12  H    0.086073
 Sum of Mulliken charges =  -0.00000

 Dipole moment (field-independent basis, Debye):
    X=             -0.0269    Y=              0.0743    Z=              0.2443  Tot=              0.2567
 Quadrupole moment (field-independent basis, Debye-Ang):
   XX=            -32.0560   YY=            -31.4556   ZZ=            -38.5864
   XY=             -0.3223   XZ=             -0.1884   YZ=             -0.3828

 Normal termination of Gaussian 16 at Fri Nov 10 20:38:17 2023.
