 Gaussian 16, Revision B.01,
 Gaussian 16:  EM64L-G16RevB.01 20-Dec-2017

 ---------------------------------
 # TD=(NStates=1) B3LYP/6-31G(d,p)
 ---------------------------------

 -------
 EMISPCT
 -------
 Symbolic Z-matrix:
 Charge =  0 Multiplicity = 1

                         Standard orientation:
 ---------------------------------------------------------------------
 Center     Atomic      Atomic             Coordinates (Angstroms)
 Number     Number       Type             X           Y           Z
 ---------------------------------------------------------------------
      1          6           0        0.803846    1.103519   -0.006215
      2          6           0       -0.574580    1.332701    0.013550
      3          6           0       -1.495499    0.117005    0.061261
      4          6           0       -0.856774   -1.187899    0.002654
      5          6           0        0.652484   -1.292852   -0.177495
      6          6           0        1.406346   -0.122788    0.064001
      7          1           0        1.566075    2.040688   -0.025065
      8          1           0        2.414792   -0.038167    0.418241
      9          1           0        1.310693   -2.091038   -0.135658
     10          1           0       -1.416855   -2.054150    0.429737
     11          1           0       -2.396208    0.220732   -0.104781
     12          1           0       -1.093433    2.223816   -0.329015
 ---------------------------------------------------------------------

 SCF Done:  E(RB3LYP) =  -232.156816557     A.U. after   14 cycles

 Excitation energies and oscillator strengths:

 Excited State   1:      Singlet-A      4.5470 eV  272.67 nm  f=0.0076  <S**2>=0.000
      20 -> 23         0.36412
      21 -> 22         0.60489
 This state for optimization and/or second-order correction.
 Total Energy, E(TD-HF/TD-DFT) =  -231.989716869
 Copying the excited state density for this state as the 1-particle RhoCI density.

 The electronic state is 1-A.
 Alpha  occ. eigenvalues --  -10.21451 -10.20320 -10.19995 -10.19639 -10.18952
 Alpha  occ. eigenvalues --  -10.18917  -0.83093  -0.74217  -0.72451  -0.60997
 Alpha  occ. eigenvalues --   -0.59458  -0.50399  -0.47797  -0.43444  -0.41473
 Alpha  occ. eigenvalues --   -0.39964  -0.36589  -0.33992  -0.31913  -0.23880
 Alpha  occ. eigenvalues --   -0.23297
 Alpha virt. eigenvalues --   -0.02792  -0.01209   0.08851   0.11261   0.14059
 Alpha virt. eigenvalues --    0.15385   0.15601   0.18495   0.19619   0.25791
 Alpha virt. eigenvalues --    0.27489   0.29741   0.31491   0.45325   0.48352

 Mulliken charges:
               1
     1  C   -0.076467
     2  C   -0.100023
     3  C   -0.072340
     4  C   -0.118088
     5  C   -0.096249
     6  C   -0.072324
     7  H    0.065662
     8  H    0.098933
     9  H    0.095952
    10  H    0.102214
    11  H    0.077530
    12  H    0.095199
 Sum of Mulliken charges =  -0.00000

 Dipole moment (field-independent basis, Debye):
    X=              0.1523    Y=             -0.0853    Z=              0.1549  Tot=              0.2334
 Quadrupole moment (field-independent basis, Debye-Ang):
   XX=            -30.8990   YY=            -32.8087   ZZ=            -38.4719
   XY=             -0.5335   XZ=              0.7078   YZ=             -1.1928

 Normal termination of Gaussian 16 at Fri Nov 10 22:49:34 2023.
