 Gaussian 16, Revision B.01,
 Gaussian 16:  EM64L-G16RevB.01 20-Dec-2017

 ---------------------------------
 # TD=(NStates=1) B3LYP/6-31G(d,p)
 ---------------------------------

 -------
 EMISPCT
 -------
 Symbolic Z-matrix:
 Charge =  0 Multiplicity = 1

                         Standard orientation:
 ---------------------------------------------------------------------
 Center     Atomic      Atomic             Coordinates (Angstroms)
 Number     Number       Type             X           Y           Z
 ---------------------------------------------------------------------
      1          6           0       -1.144003   -0.902222   -0.023956
      2          6           0       -1.339391    0.475380    0.041837
      3          6           0       -0.245859    1.394082   -0.053469
      4          6           0        1.138866    0.870510   -0.028222
      5          6           0        1.329965   -0.493451    0.128457
      6          6           0        0.235455   -1.419608   -0.087844
      7          1           0       -2.023185   -1.532132    0.195460
      8          1           0        0.592487   -2.256671   -0.110842
      9          1           0        2.304513   -0.730527    0.021582
     10          1           0        2.135306    1.463698   -0.034905
     11          1           0       -0.452333    2.515306    0.017449
     12          1           0       -2.406983    0.992188    0.050432
 ---------------------------------------------------------------------

 SCF Done:  E(RB3LYP) =  -232.177635051     A.U. after   13 cycles

 Excitation energies and oscillator strengths:

 Excited State   1:      Singlet-A      5.0778 eV  244.17 nm  f=0.0001  <S**2>=0.000
      20 -> 22         0.49674
      21 -> 23         0.50174
 This state for optimization and/or second-order correction.
 Total Energy, E(TD-HF/TD-DFT) =  -231.991030769
 Copying the excited state density for this state as the 1-particle RhoCI density.

 The electronic state is 1-A.
 Alpha  occ. eigenvalues --  -10.20654 -10.20492 -10.20437 -10.20237 -10.18840
 Alpha  occ. eigenvalues --  -10.18132  -0.83306  -0.74574  -0.72683  -0.61788
 Alpha  occ. eigenvalues --   -0.57925  -0.51078  -0.46717  -0.43337  -0.41586
 Alpha  occ. eigenvalues --   -0.40357  -0.35096  -0.34148  -0.33109  -0.25243
 Alpha  occ. eigenvalues --   -0.23318
 Alpha virt. eigenvalues --   -0.02083  -0.00035   0.08102   0.12172   0.13486
 Alpha virt. eigenvalues --    0.14983   0.16387   0.17270   0.20642   0.27753
 Alpha virt. eigenvalues --    0.28096   0.28891   0.30667   0.47758   0.48134

 Mulliken charges:
               1
     1  C   -0.097469
     2  C   -0.080116
     3  C   -0.095934
     4  C   -0.094962
     5  C   -0.085229
     6  C   -0.049012
     7  H    0.096352
     8  H    0.062443
     9  H    0.082664
    10  H    0.086058
    11  H    0.088379
    12  H    0.086825
 Sum of Mulliken charges =  -0.00000

 Dipole moment (field-independent basis, Debye):
    X=              0.1388    Y=             -0.0443    Z=              0.0632  Tot=              0.1588
 Quadrupole moment (field-independent basis, Debye-Ang):
   XX=            -30.8107   YY=            -32.2020   ZZ=            -38.8868
   XY=             -0.4109   XZ=             -0.5470   YZ=              0.0280

 Normal termination of Gaussian 16 at Fri Nov 10 22:29:07 2023.
