 Gaussian 16, Revision B.01,
 Gaussian 16:  EM64L-G16RevB.01 20-Dec-2017

 ---------------------------------
 # TD=(NStates=1) B3LYP/6-31G(d,p)
 ---------------------------------

 -------
 EMISPCT
 -------
 Symbolic Z-matrix:
 Charge =  0 Multiplicity = 1

                         Standard orientation:
 ---------------------------------------------------------------------
 Center     Atomic      Atomic             Coordinates (Angstroms)
 Number     Number       Type             X           Y           Z
 ---------------------------------------------------------------------
      1          6           0       -0.025986    1.345865    0.005230
      2          6           0        1.210929    0.742253   -0.063263
      3          6           0        1.344453   -0.648846    0.049198
      4          6           0        0.025495   -1.341168   -0.038821
      5          6           0       -1.213979   -0.808094    0.030316
      6          6           0       -1.274980    0.661285    0.030938
      7          1           0       -0.183312    2.466732    0.336527
      8          1           0       -2.121479    1.270337   -0.207686
      9          1           0       -2.289502   -1.230784   -0.053417
     10          1           0        0.061395   -2.393353   -0.127366
     11          1           0        2.235833   -1.303508    0.269180
     12          1           0        1.901475    1.482811   -0.298827
 ---------------------------------------------------------------------

 SCF Done:  E(RB3LYP) =  -232.193861923     A.U. after   14 cycles

 Excitation energies and oscillator strengths:

 Excited State   1:      Singlet-A      4.9566 eV  250.14 nm  f=0.0104  <S**2>=0.000
      20 -> 22         0.43863
      20 -> 23        -0.15833
      21 -> 22        -0.36219
      21 -> 23        -0.38666
 This state for optimization and/or second-order correction.
 Total Energy, E(TD-HF/TD-DFT) =  -232.011708825
 Copying the excited state density for this state as the 1-particle RhoCI density.

 The electronic state is 1-A.
 Alpha  occ. eigenvalues --  -10.21071 -10.19937 -10.19136 -10.19115 -10.19027
 Alpha  occ. eigenvalues --  -10.18972  -0.83958  -0.74595  -0.72728  -0.60829
 Alpha  occ. eigenvalues --   -0.58204  -0.51142  -0.46123  -0.43650  -0.42353
 Alpha  occ. eigenvalues --   -0.39194  -0.35740  -0.35394  -0.31340  -0.24888
 Alpha  occ. eigenvalues --   -0.22960
 Alpha virt. eigenvalues --   -0.02093   0.00417   0.07865   0.11752   0.13829
 Alpha virt. eigenvalues --    0.15091   0.16609   0.17582   0.18724   0.26006
 Alpha virt. eigenvalues --    0.29084   0.29822   0.33462   0.46885   0.48240

 Mulliken charges:
               1
     1  C   -0.097497
     2  C   -0.072541
     3  C   -0.095064
     4  C   -0.110893
     5  C   -0.069015
     6  C   -0.101979
     7  H    0.078978
     8  H    0.093829
     9  H    0.093501
    10  H    0.081664
    11  H    0.106893
    12  H    0.092124
 Sum of Mulliken charges =  -0.00000

 Dipole moment (field-independent basis, Debye):
    X=             -0.0009    Y=             -0.0161    Z=             -0.0653  Tot=              0.0673
 Quadrupole moment (field-independent basis, Debye-Ang):
   XX=            -31.4249   YY=            -32.1520   ZZ=            -38.5647
   XY=             -0.6256   XZ=              0.4949   YZ=             -0.0299

 Normal termination of Gaussian 16 at Fri Nov 10 20:15:05 2023.
