 Gaussian 16, Revision B.01,
 Gaussian 16:  EM64L-G16RevB.01 20-Dec-2017

 ---------------------------------
 # TD=(NStates=1) B3LYP/6-31G(d,p)
 ---------------------------------

 -------
 EMISPCT
 -------
 Symbolic Z-matrix:
 Charge =  0 Multiplicity = 1

                         Standard orientation:
 ---------------------------------------------------------------------
 Center     Atomic      Atomic             Coordinates (Angstroms)
 Number     Number       Type             X           Y           Z
 ---------------------------------------------------------------------
      1          6           0       -1.434930   -0.250311    0.126764
      2          6           0       -0.896008    1.150884   -0.018081
      3          6           0        0.533394    1.314196   -0.081525
      4          6           0        1.451686    0.159589    0.044777
      5          6           0        0.938831   -1.106997   -0.064012
      6          6           0       -0.557001   -1.226896   -0.008873
      7          1           0       -2.518961   -0.425482   -0.011075
      8          1           0       -1.091222   -2.262532   -0.292450
      9          1           0        1.318249   -2.214830    0.098298
     10          1           0        2.542890    0.328511    0.262548
     11          1           0        1.015471    2.216296   -0.009912
     12          1           0       -1.482264    2.115249   -0.041717
 ---------------------------------------------------------------------

 SCF Done:  E(RB3LYP) =  -232.193319579     A.U. after   13 cycles

 Excitation energies and oscillator strengths:

 Excited State   1:      Singlet-A      5.1508 eV  240.71 nm  f=0.0034  <S**2>=0.000
      20 -> 22         0.43690
      20 -> 23         0.15527
      21 -> 22        -0.24837
      21 -> 23         0.47208
 This state for optimization and/or second-order correction.
 Total Energy, E(TD-HF/TD-DFT) =  -232.004030371
 Copying the excited state density for this state as the 1-particle RhoCI density.

 The electronic state is 1-A.
 Alpha  occ. eigenvalues --  -10.21157 -10.20733 -10.20547 -10.19823 -10.19619
 Alpha  occ. eigenvalues --  -10.19582  -0.83255  -0.74345  -0.72331  -0.59706
 Alpha  occ. eigenvalues --   -0.58287  -0.50296  -0.45951  -0.42981  -0.41643
 Alpha  occ. eigenvalues --   -0.40138  -0.35179  -0.33486  -0.32366  -0.25329
 Alpha  occ. eigenvalues --   -0.23621
 Alpha virt. eigenvalues --   -0.01620  -0.00303   0.07509   0.12149   0.12626
 Alpha virt. eigenvalues --    0.13751   0.14923   0.17394   0.17888   0.25722
 Alpha virt. eigenvalues --    0.26982   0.29611   0.33109   0.44228   0.49537

 Mulliken charges:
               1
     1  C   -0.074983
     2  C   -0.111357
     3  C   -0.080458
     4  C   -0.107944
     5  C   -0.073745
     6  C   -0.094312
     7  H    0.094571
     8  H    0.071715
     9  H    0.097398
    10  H    0.094813
    11  H    0.088977
    12  H    0.095325
 Sum of Mulliken charges =  -0.00000

 Dipole moment (field-independent basis, Debye):
    X=             -0.0372    Y=              0.1502    Z=              0.0480  Tot=              0.1620
 Quadrupole moment (field-independent basis, Debye-Ang):
   XX=            -31.7433   YY=            -31.6803   ZZ=            -39.0341
   XY=              0.3567   XZ=              0.9876   YZ=              0.2603

 Normal termination of Gaussian 16 at Fri Nov 10 22:29:02 2023.
