 Gaussian 16, Revision B.01,
 Gaussian 16:  EM64L-G16RevB.01 20-Dec-2017

 ---------------------------------
 # TD=(NStates=1) B3LYP/6-31G(d,p)
 ---------------------------------

 -------
 EMISPCT
 -------
 Symbolic Z-matrix:
 Charge =  0 Multiplicity = 1

                         Standard orientation:
 ---------------------------------------------------------------------
 Center     Atomic      Atomic             Coordinates (Angstroms)
 Number     Number       Type             X           Y           Z
 ---------------------------------------------------------------------
      1          6           0        1.398636    0.367840    0.024203
      2          6           0        1.072128   -0.988117    0.132096
      3          6           0       -0.413665   -1.390965   -0.124800
      4          6           0       -1.459401   -0.372247   -0.063472
      5          6           0       -0.987052    1.046313    0.031146
      6          6           0        0.362183    1.375818   -0.005739
      7          1           0        2.549604    0.526727   -0.453968
      8          1           0        0.649127    2.428445   -0.353115
      9          1           0       -1.849009    1.675196    0.562080
     10          1           0       -2.518326   -0.757532    0.017566
     11          1           0       -0.719285   -2.329498   -0.072730
     12          1           0        2.050908   -1.775199    0.339566
 ---------------------------------------------------------------------

 SCF Done:  E(RB3LYP) =  -232.144480155     A.U. after   14 cycles

 Excitation energies and oscillator strengths:

 Excited State   1:      Singlet-A      4.5887 eV  270.19 nm  f=0.0001  <S**2>=0.000
      20 -> 22         0.49690
      21 -> 23        -0.49256
 This state for optimization and/or second-order correction.
 Total Energy, E(TD-HF/TD-DFT) =  -231.975847264
 Copying the excited state density for this state as the 1-particle RhoCI density.

 The electronic state is 1-A.
 Alpha  occ. eigenvalues --  -10.22620 -10.21503 -10.21256 -10.21141 -10.20617
 Alpha  occ. eigenvalues --  -10.20539  -0.82369  -0.73136  -0.72283  -0.59765
 Alpha  occ. eigenvalues --   -0.57321  -0.49055  -0.45671  -0.42932  -0.41240
 Alpha  occ. eigenvalues --   -0.39060  -0.35986  -0.33843  -0.30757  -0.24365
 Alpha  occ. eigenvalues --   -0.23366
 Alpha virt. eigenvalues --   -0.02967  -0.01933   0.06185   0.08819   0.11394
 Alpha virt. eigenvalues --    0.12614   0.13995   0.16222   0.17998   0.24783
 Alpha virt. eigenvalues --    0.27156   0.28649   0.30329   0.44876   0.47271

 Mulliken charges:
               1
     1  C   -0.079277
     2  C   -0.093989
     3  C   -0.084717
     4  C   -0.103689
     5  C   -0.094981
     6  C   -0.098394
     7  H    0.086955
     8  H    0.098339
     9  H    0.090345
    10  H    0.106282
    11  H    0.088639
    12  H    0.084485
 Sum of Mulliken charges =  -0.00000

 Dipole moment (field-independent basis, Debye):
    X=             -0.1780    Y=             -0.3730    Z=              0.0045  Tot=              0.4133
 Quadrupole moment (field-independent basis, Debye-Ang):
   XX=            -31.2376   YY=            -32.9591   ZZ=            -38.9971
   XY=              0.4410   XZ=             -1.4356   YZ=             -0.5003

 Normal termination of Gaussian 16 at Fri Nov 10 20:01:03 2023.
