 Gaussian 16, Revision B.01,
 Gaussian 16:  EM64L-G16RevB.01 20-Dec-2017

 ---------------------------------
 # TD=(NStates=1) B3LYP/6-31G(d,p)
 ---------------------------------

 -------
 EMISPCT
 -------
 Symbolic Z-matrix:
 Charge =  0 Multiplicity = 1

                         Standard orientation:
 ---------------------------------------------------------------------
 Center     Atomic      Atomic             Coordinates (Angstroms)
 Number     Number       Type             X           Y           Z
 ---------------------------------------------------------------------
      1          6           0        0.858134    1.093560   -0.063843
      2          6           0       -0.567211    1.286474    0.042047
      3          6           0       -1.432495    0.141231    0.033601
      4          6           0       -0.837401   -1.107782   -0.069913
      5          6           0        0.548170   -1.253995   -0.028154
      6          6           0        1.457364   -0.170036    0.056330
      7          1           0        1.350689    2.074661   -0.126945
      8          1           0        2.445766   -0.204597    0.269635
      9          1           0        1.133016   -2.284383   -0.079888
     10          1           0       -1.500532   -1.851283    0.088538
     11          1           0       -2.572288    0.076108    0.145573
     12          1           0       -1.016013    2.252789   -0.117326
 ---------------------------------------------------------------------

 SCF Done:  E(RB3LYP) =  -232.216270870     A.U. after   13 cycles

 Excitation energies and oscillator strengths:

 Excited State   1:      Singlet-A      5.2512 eV  236.11 nm  f=0.0011  <S**2>=0.000
      20 -> 22         0.42268
      20 -> 23        -0.23752
      21 -> 22         0.30408
      21 -> 23         0.41478
 This state for optimization and/or second-order correction.
 Total Energy, E(TD-HF/TD-DFT) =  -232.023293767
 Copying the excited state density for this state as the 1-particle RhoCI density.

 The electronic state is 1-A.
 Alpha  occ. eigenvalues --  -10.20289 -10.19658 -10.19515 -10.19368 -10.18900
 Alpha  occ. eigenvalues --  -10.17958  -0.84196  -0.74770  -0.72949  -0.60158
 Alpha  occ. eigenvalues --   -0.59441  -0.51765  -0.46484  -0.43446  -0.42429
 Alpha  occ. eigenvalues --   -0.40217  -0.36149  -0.34180  -0.32428  -0.24809
 Alpha  occ. eigenvalues --   -0.24087
 Alpha virt. eigenvalues --   -0.00879  -0.00146   0.08742   0.12907   0.13956
 Alpha virt. eigenvalues --    0.14578   0.17350   0.18345   0.19867   0.28308
 Alpha virt. eigenvalues --    0.29267   0.30205   0.32168   0.46149   0.51284

 Mulliken charges:
               1
     1  C   -0.093503
     2  C   -0.100932
     3  C   -0.094853
     4  C   -0.058646
     5  C   -0.101551
     6  C   -0.064699
     7  H    0.084873
     8  H    0.093572
     9  H    0.076198
    10  H    0.082991
    11  H    0.087837
    12  H    0.088715
 Sum of Mulliken charges =  -0.00000

 Dipole moment (field-independent basis, Debye):
    X=              0.0233    Y=              0.0421    Z=              0.1297  Tot=              0.1384
 Quadrupole moment (field-independent basis, Debye-Ang):
   XX=            -30.9107   YY=            -32.4161   ZZ=            -38.6006
   XY=              0.2721   XZ=              0.0817   YZ=             -0.4915

 Normal termination of Gaussian 16 at Fri Nov 10 20:28:04 2023.
