 Gaussian 16, Revision B.01,
 Gaussian 16:  EM64L-G16RevB.01 20-Dec-2017

 ---------------------------------
 # TD=(NStates=1) B3LYP/6-31G(d,p)
 ---------------------------------

 -------
 EMISPCT
 -------
 Symbolic Z-matrix:
 Charge =  0 Multiplicity = 1

                         Standard orientation:
 ---------------------------------------------------------------------
 Center     Atomic      Atomic             Coordinates (Angstroms)
 Number     Number       Type             X           Y           Z
 ---------------------------------------------------------------------
      1          6           0       -1.465928   -0.168118    0.037612
      2          6           0       -0.949132    1.083722   -0.084832
      3          6           0        0.565450    1.340811    0.007349
      4          6           0        1.444430    0.165356   -0.020992
      5          6           0        0.895475   -1.116952   -0.031541
      6          6           0       -0.561750   -1.291679    0.005528
      7          1           0       -2.546624   -0.378528    0.175516
      8          1           0       -0.894766   -2.353370   -0.088686
      9          1           0        1.570179   -1.925982    0.063649
     10          1           0        2.686163    0.322203    0.228643
     11          1           0        0.944292    2.246880    0.015569
     12          1           0       -1.330518    2.009962    0.126557
 ---------------------------------------------------------------------

 SCF Done:  E(RB3LYP) =  -232.189394769     A.U. after   13 cycles

 Excitation energies and oscillator strengths:

 Excited State   1:      Singlet-A      5.0608 eV  244.99 nm  f=0.0002  <S**2>=0.000
      20 -> 22         0.49763
      21 -> 23         0.50125
 This state for optimization and/or second-order correction.
 Total Energy, E(TD-HF/TD-DFT) =  -232.003412518
 Copying the excited state density for this state as the 1-particle RhoCI density.

 The electronic state is 1-A.
 Alpha  occ. eigenvalues --  -10.21167 -10.20598 -10.20195 -10.19773 -10.19536
 Alpha  occ. eigenvalues --  -10.19483  -0.82852  -0.74289  -0.72314  -0.60707
 Alpha  occ. eigenvalues --   -0.58723  -0.50986  -0.46904  -0.43551  -0.41391
 Alpha  occ. eigenvalues --   -0.39996  -0.36244  -0.33967  -0.31533  -0.25526
 Alpha  occ. eigenvalues --   -0.23080
 Alpha virt. eigenvalues --   -0.02404   0.00057   0.08029   0.11073   0.13381
 Alpha virt. eigenvalues --    0.15721   0.16220   0.17285   0.19327   0.25328
 Alpha virt. eigenvalues --    0.27077   0.30107   0.31628   0.47263   0.47360

 Mulliken charges:
               1
     1  C   -0.080339
     2  C   -0.087896
     3  C   -0.101069
     4  C   -0.078199
     5  C   -0.078868
     6  C   -0.101530
     7  H    0.096775
     8  H    0.090696
     9  H    0.093373
    10  H    0.065079
    11  H    0.088157
    12  H    0.093821
 Sum of Mulliken charges =  -0.00000

 Dipole moment (field-independent basis, Debye):
    X=             -0.0515    Y=              0.0055    Z=              0.3148  Tot=              0.3191
 Quadrupole moment (field-independent basis, Debye-Ang):
   XX=            -31.9653   YY=            -31.0617   ZZ=            -39.0034
   XY=              0.1335   XZ=              0.0929   YZ=              0.3643

 Normal termination of Gaussian 16 at Fri Nov 10 21:07:41 2023.
