 Gaussian 16, Revision B.01,
 Gaussian 16:  EM64L-G16RevB.01 20-Dec-2017

 ---------------------------------
 # TD=(NStates=1) B3LYP/6-31G(d,p)
 ---------------------------------

 -------
 EMISPCT
 -------
 Symbolic Z-matrix:
 Charge =  0 Multiplicity = 1

                         Standard orientation:
 ---------------------------------------------------------------------
 Center     Atomic      Atomic             Coordinates (Angstroms)
 Number     Number       Type             X           Y           Z
 ---------------------------------------------------------------------
      1          6           0        0.682189    1.262027   -0.046371
      2          6           0       -0.862338    1.173440   -0.067355
      3          6           0       -1.371501   -0.054902    0.072745
      4          6           0       -0.635202   -1.259957    0.026356
      5          6           0        0.727285   -1.168478   -0.125572
      6          6           0        1.498724    0.038021    0.073570
      7          1           0        1.041735    2.238710    0.117351
      8          1           0        2.521066    0.331365    0.362256
      9          1           0        1.306130   -2.090978   -0.177738
     10          1           0       -1.066604   -2.213181    0.053598
     11          1           0       -2.538542   -0.287998    0.243361
     12          1           0       -1.498727    2.081172   -0.199063
 ---------------------------------------------------------------------

 SCF Done:  E(RB3LYP) =  -232.201619618     A.U. after   13 cycles

 Excitation energies and oscillator strengths:

 Excited State   1:      Singlet-A      5.1072 eV  242.76 nm  f=0.0005  <S**2>=0.000
      20 -> 22        -0.47905
      21 -> 22         0.12319
      21 -> 23         0.49972
 This state for optimization and/or second-order correction.
 Total Energy, E(TD-HF/TD-DFT) =  -232.013933056
 Copying the excited state density for this state as the 1-particle RhoCI density.

 The electronic state is 1-A.
 Alpha  occ. eigenvalues --  -10.20675 -10.20319 -10.19979 -10.19601 -10.19575
 Alpha  occ. eigenvalues --  -10.18664  -0.83597  -0.73812  -0.72891  -0.60003
 Alpha  occ. eigenvalues --   -0.58715  -0.51007  -0.46591  -0.43767  -0.41439
 Alpha  occ. eigenvalues --   -0.40293  -0.35734  -0.34541  -0.31333  -0.24821
 Alpha  occ. eigenvalues --   -0.23540
 Alpha virt. eigenvalues --   -0.01410  -0.00256   0.08500   0.11796   0.14336
 Alpha virt. eigenvalues --    0.14676   0.15561   0.17478   0.18781   0.25698
 Alpha virt. eigenvalues --    0.28191   0.29702   0.33489   0.45143   0.46131

 Mulliken charges:
               1
     1  C   -0.120941
     2  C   -0.098723
     3  C   -0.066084
     4  C   -0.058088
     5  C   -0.105857
     6  C   -0.088478
     7  H    0.090757
     8  H    0.109859
     9  H    0.080087
    10  H    0.094414
    11  H    0.066558
    12  H    0.096496
 Sum of Mulliken charges =  -0.00000

 Dipole moment (field-independent basis, Debye):
    X=              0.0629    Y=              0.0150    Z=              0.2623  Tot=              0.2702
 Quadrupole moment (field-independent basis, Debye-Ang):
   XX=            -31.9840   YY=            -31.1876   ZZ=            -38.7828
   XY=              0.5232   XZ=              0.5766   YZ=              0.1132

 Normal termination of Gaussian 16 at Fri Nov 10 20:35:20 2023.
