 Gaussian 16, Revision B.01,
 Gaussian 16:  EM64L-G16RevB.01 20-Dec-2017

 ---------------------------------
 # TD=(NStates=1) B3LYP/6-31G(d,p)
 ---------------------------------

 -------
 EMISPCT
 -------
 Symbolic Z-matrix:
 Charge =  0 Multiplicity = 1

                         Standard orientation:
 ---------------------------------------------------------------------
 Center     Atomic      Atomic             Coordinates (Angstroms)
 Number     Number       Type             X           Y           Z
 ---------------------------------------------------------------------
      1          6           0       -0.485123    1.270011    0.036200
      2          6           0        0.904828    1.086416   -0.059973
      3          6           0        1.405144   -0.254652   -0.021230
      4          6           0        0.492300   -1.312053   -0.045830
      5          6           0       -0.954429   -1.119828    0.050044
      6          6           0       -1.400590    0.275843   -0.051612
      7          1           0       -0.796239    2.292042    0.425077
      8          1           0       -2.538957    0.569371   -0.212168
      9          1           0       -1.643539   -1.895224    0.082571
     10          1           0        1.061159   -2.247548    0.125139
     11          1           0        2.488392   -0.474359    0.215470
     12          1           0        1.656394    2.081298   -0.081686
 ---------------------------------------------------------------------

 SCF Done:  E(RB3LYP) =  -232.202880295     A.U. after   14 cycles

 Excitation energies and oscillator strengths:

 Excited State   1:      Singlet-A      5.0300 eV  246.49 nm  f=0.0022  <S**2>=0.000
      20 -> 22         0.54655
      21 -> 23         0.44050
 This state for optimization and/or second-order correction.
 Total Energy, E(TD-HF/TD-DFT) =  -232.018030842
 Copying the excited state density for this state as the 1-particle RhoCI density.

 The electronic state is 1-A.
 Alpha  occ. eigenvalues --  -10.20899 -10.20474 -10.20431 -10.19862 -10.19808
 Alpha  occ. eigenvalues --  -10.19181  -0.83930  -0.74204  -0.72655  -0.60348
 Alpha  occ. eigenvalues --   -0.57825  -0.50675  -0.44822  -0.43289  -0.41190
 Alpha  occ. eigenvalues --   -0.40783  -0.35850  -0.34617  -0.32235  -0.24401
 Alpha  occ. eigenvalues --   -0.23830
 Alpha virt. eigenvalues --   -0.01743  -0.00115   0.06583   0.12055   0.12466
 Alpha virt. eigenvalues --    0.13586   0.16639   0.16896   0.18199   0.27758
 Alpha virt. eigenvalues --    0.28445   0.30535   0.32031   0.47368   0.48599

 Mulliken charges:
               1
     1  C   -0.071925
     2  C   -0.087697
     3  C   -0.091775
     4  C   -0.089447
     5  C   -0.093719
     6  C   -0.096734
     7  H    0.089369
     8  H    0.089145
     9  H    0.095434
    10  H    0.084874
    11  H    0.094605
    12  H    0.077868
 Sum of Mulliken charges =  -0.00000

 Dipole moment (field-independent basis, Debye):
    X=             -0.0079    Y=             -0.0152    Z=              0.3428  Tot=              0.3432
 Quadrupole moment (field-independent basis, Debye-Ang):
   XX=            -31.3922   YY=            -32.3366   ZZ=            -38.8464
   XY=             -0.0105   XZ=              0.5196   YZ=              0.0674

 Normal termination of Gaussian 16 at Fri Nov 10 21:52:46 2023.
