 Gaussian 16, Revision B.01,
 Gaussian 16:  EM64L-G16RevB.01 20-Dec-2017

 ---------------------------------
 # TD=(NStates=1) B3LYP/6-31G(d,p)
 ---------------------------------

 -------
 EMISPCT
 -------
 Symbolic Z-matrix:
 Charge =  0 Multiplicity = 1

                         Standard orientation:
 ---------------------------------------------------------------------
 Center     Atomic      Atomic             Coordinates (Angstroms)
 Number     Number       Type             X           Y           Z
 ---------------------------------------------------------------------
      1          6           0       -1.354007    0.510145   -0.082975
      2          6           0       -1.180577   -0.970145    0.016130
      3          6           0        0.276939   -1.360157    0.001193
      4          6           0        1.434821   -0.530295   -0.010043
      5          6           0        1.142146    0.887548   -0.039219
      6          6           0       -0.304081    1.427849    0.072690
      7          1           0       -2.337169    0.817705   -0.133510
      8          1           0       -0.377833    2.614145    0.142037
      9          1           0        1.967589    1.677369    0.106373
     10          1           0        2.272665   -0.841010   -0.175838
     11          1           0        0.476799   -2.476269    0.200737
     12          1           0       -2.093498   -1.581610    0.113555
 ---------------------------------------------------------------------

 SCF Done:  E(RB3LYP) =  -232.163379035     A.U. after   14 cycles

 Excitation energies and oscillator strengths:

 Excited State   1:      Singlet-A      4.8373 eV  256.31 nm  f=0.0036  <S**2>=0.000
      20 -> 22         0.45962
      20 -> 23         0.11072
      21 -> 22        -0.21394
      21 -> 23         0.48009
 This state for optimization and/or second-order correction.
 Total Energy, E(TD-HF/TD-DFT) =  -231.985610836
 Copying the excited state density for this state as the 1-particle RhoCI density.

 The electronic state is 1-A.
 Alpha  occ. eigenvalues --  -10.21470 -10.21449 -10.21447 -10.21183 -10.19786
 Alpha  occ. eigenvalues --  -10.18840  -0.81845  -0.74486  -0.70819  -0.60040
 Alpha  occ. eigenvalues --   -0.58962  -0.50753  -0.47539  -0.43592  -0.41306
 Alpha  occ. eigenvalues --   -0.39636  -0.35067  -0.33916  -0.31649  -0.25004
 Alpha  occ. eigenvalues --   -0.22848
 Alpha virt. eigenvalues --   -0.02542  -0.00602   0.08555   0.11364   0.12666
 Alpha virt. eigenvalues --    0.14320   0.15001   0.17917   0.18930   0.23806
 Alpha virt. eigenvalues --    0.24963   0.30086   0.31033   0.42628   0.44433

 Mulliken charges:
               1
     1  C   -0.081779
     2  C   -0.100845
     3  C   -0.109748
     4  C   -0.019300
     5  C   -0.115963
     6  C   -0.090077
     7  H    0.085540
     8  H    0.092792
     9  H    0.084882
    10  H    0.071003
    11  H    0.073948
    12  H    0.109545
 Sum of Mulliken charges =  -0.00000

 Dipole moment (field-independent basis, Debye):
    X=             -0.0810    Y=              0.0372    Z=              0.1159  Tot=              0.1462
 Quadrupole moment (field-independent basis, Debye-Ang):
   XX=            -30.5309   YY=            -31.9893   ZZ=            -39.2774
   XY=              0.3650   XZ=             -0.1570   YZ=             -0.0438

 Normal termination of Gaussian 16 at Fri Nov 10 22:10:31 2023.
