 Gaussian 16, Revision B.01,
 Gaussian 16:  EM64L-G16RevB.01 20-Dec-2017

 ---------------------------------
 # TD=(NStates=1) B3LYP/6-31G(d,p)
 ---------------------------------

 -------
 EMISPCT
 -------
 Symbolic Z-matrix:
 Charge =  0 Multiplicity = 1

                         Standard orientation:
 ---------------------------------------------------------------------
 Center     Atomic      Atomic             Coordinates (Angstroms)
 Number     Number       Type             X           Y           Z
 ---------------------------------------------------------------------
      1          6           0       -1.480335   -0.065506   -0.051577
      2          6           0       -0.769625    1.164686   -0.012091
      3          6           0        0.711660    1.279112   -0.021973
      4          6           0        1.446067    0.000997    0.039143
      5          6           0        0.790681   -1.164348    0.004249
      6          6           0       -0.691680   -1.213602   -0.038435
      7          1           0       -2.759740   -0.069924    0.140062
      8          1           0       -0.931055   -2.318252    0.353842
      9          1           0        1.376202   -1.987711   -0.184725
     10          1           0        2.405814    0.095044   -0.031279
     11          1           0        1.322160    2.226559    0.146202
     12          1           0       -1.453987    2.046245    0.060009
 ---------------------------------------------------------------------

 SCF Done:  E(RB3LYP) =  -232.172533207     A.U. after   14 cycles

 Excitation energies and oscillator strengths:

 Excited State   1:      Singlet-A      5.1020 eV  243.01 nm  f=0.0032  <S**2>=0.000
      20 -> 22         0.47277
      21 -> 22        -0.16695
      21 -> 23         0.49276
 This state for optimization and/or second-order correction.
 Total Energy, E(TD-HF/TD-DFT) =  -231.985038213
 Copying the excited state density for this state as the 1-particle RhoCI density.

 The electronic state is 1-A.
 Alpha  occ. eigenvalues --  -10.21789 -10.21146 -10.20875 -10.20849 -10.18388
 Alpha  occ. eigenvalues --  -10.17863  -0.83494  -0.75017  -0.71825  -0.60006
 Alpha  occ. eigenvalues --   -0.58911  -0.50686  -0.46195  -0.42858  -0.42158
 Alpha  occ. eigenvalues --   -0.39567  -0.35739  -0.32997  -0.32551  -0.25767
 Alpha  occ. eigenvalues --   -0.23169
 Alpha virt. eigenvalues --   -0.02319   0.00076   0.06025   0.11326   0.12370
 Alpha virt. eigenvalues --    0.14781   0.15809   0.16355   0.20395   0.25986
 Alpha virt. eigenvalues --    0.27377   0.29662   0.32790   0.46167   0.48238

 Mulliken charges:
               1
     1  C   -0.080324
     2  C   -0.097099
     3  C   -0.106990
     4  C   -0.049721
     5  C   -0.085708
     6  C   -0.098715
     7  H    0.085436
     8  H    0.085717
     9  H    0.088655
    10  H    0.074491
    11  H    0.096342
    12  H    0.087916
 Sum of Mulliken charges =  -0.00000

 Dipole moment (field-independent basis, Debye):
    X=              0.3043    Y=              0.0779    Z=              0.2766  Tot=              0.4185
 Quadrupole moment (field-independent basis, Debye-Ang):
   XX=            -31.0511   YY=            -32.4426   ZZ=            -38.9151
   XY=             -0.4051   XZ=             -0.7110   YZ=              0.0313

 Normal termination of Gaussian 16 at Fri Nov 10 21:44:19 2023.
