 Gaussian 16, Revision B.01,
 Gaussian 16:  EM64L-G16RevB.01 20-Dec-2017

 ---------------------------------
 # TD=(NStates=1) B3LYP/6-31G(d,p)
 ---------------------------------

 -------
 EMISPCT
 -------
 Symbolic Z-matrix:
 Charge =  0 Multiplicity = 1

                         Standard orientation:
 ---------------------------------------------------------------------
 Center     Atomic      Atomic             Coordinates (Angstroms)
 Number     Number       Type             X           Y           Z
 ---------------------------------------------------------------------
      1          6           0        1.197707    0.813881    0.113642
      2          6           0       -0.106318    1.383665   -0.083527
      3          6           0       -1.327803    0.552227   -0.023158
      4          6           0       -1.172060   -0.789606    0.071133
      5          6           0        0.087365   -1.412119    0.003960
      6          6           0        1.344287   -0.602730   -0.035131
      7          1           0        1.888501    1.570414    0.081135
      8          1           0        2.311359   -1.149776   -0.167901
      9          1           0        0.200021   -2.400592   -0.096852
     10          1           0       -2.094944   -1.303526   -0.060435
     11          1           0       -2.322971    1.198688    0.068051
     12          1           0       -0.121033    2.412885   -0.105509
 ---------------------------------------------------------------------

 SCF Done:  E(RB3LYP) =  -232.205710856     A.U. after   13 cycles

 Excitation energies and oscillator strengths:

 Excited State   1:      Singlet-A      5.0882 eV  243.67 nm  f=0.0006  <S**2>=0.000
      20 -> 22        -0.48143
      21 -> 23         0.51617
 This state for optimization and/or second-order correction.
 Total Energy, E(TD-HF/TD-DFT) =  -232.018723086
 Copying the excited state density for this state as the 1-particle RhoCI density.

 The electronic state is 1-A.
 Alpha  occ. eigenvalues --  -10.20865 -10.20107 -10.19196 -10.19112 -10.18958
 Alpha  occ. eigenvalues --  -10.18668  -0.83299  -0.74565  -0.72468  -0.60485
 Alpha  occ. eigenvalues --   -0.59223  -0.51281  -0.47098  -0.43326  -0.42213
 Alpha  occ. eigenvalues --   -0.40159  -0.35283  -0.34895  -0.32480  -0.25084
 Alpha  occ. eigenvalues --   -0.23158
 Alpha virt. eigenvalues --   -0.01598  -0.00097   0.09123   0.13217   0.13650
 Alpha virt. eigenvalues --    0.15034   0.16900   0.18344   0.20364   0.26715
 Alpha virt. eigenvalues --    0.28512   0.30087   0.30981   0.47065   0.48833

 Mulliken charges:
               1
     1  C   -0.073311
     2  C   -0.095899
     3  C   -0.087542
     4  C   -0.075592
     5  C   -0.085086
     6  C   -0.104394
     7  H    0.085379
     8  H    0.094020
     9  H    0.083922
    10  H    0.088421
    11  H    0.087573
    12  H    0.082509
 Sum of Mulliken charges =  -0.00000

 Dipole moment (field-independent basis, Debye):
    X=              0.0499    Y=              0.0933    Z=             -0.1783  Tot=              0.2073
 Quadrupole moment (field-independent basis, Debye-Ang):
   XX=            -31.6892   YY=            -31.0583   ZZ=            -38.7880
   XY=             -0.2201   XZ=             -0.2211   YZ=              0.4219

 Normal termination of Gaussian 16 at Fri Nov 10 19:46:53 2023.
