 Gaussian 16, Revision B.01,
 Gaussian 16:  EM64L-G16RevB.01 20-Dec-2017

 ---------------------------------
 # TD=(NStates=1) B3LYP/6-31G(d,p)
 ---------------------------------

 -------
 EMISPCT
 -------
 Symbolic Z-matrix:
 Charge =  0 Multiplicity = 1

                         Standard orientation:
 ---------------------------------------------------------------------
 Center     Atomic      Atomic             Coordinates (Angstroms)
 Number     Number       Type             X           Y           Z
 ---------------------------------------------------------------------
      1          6           0        1.144728   -0.874719   -0.063626
      2          6           0       -0.215063   -1.346746   -0.042092
      3          6           0       -1.305144   -0.524446    0.042529
      4          6           0       -1.131550    0.876703   -0.071414
      5          6           0        0.225625    1.396288    0.037079
      6          6           0        1.296801    0.523279    0.022041
      7          1           0        1.811077   -1.608535    0.005152
      8          1           0        2.332578    0.827149    0.123953
      9          1           0        0.268439    2.483666   -0.017843
     10          1           0       -1.833146    1.488681    0.044242
     11          1           0       -2.340239   -1.016932    0.052219
     12          1           0       -0.331090   -2.476173    0.245178
 ---------------------------------------------------------------------

 SCF Done:  E(RB3LYP) =  -232.206338423     A.U. after   13 cycles

 Excitation energies and oscillator strengths:

 Excited State   1:      Singlet-A      5.3011 eV  233.88 nm  f=0.0029  <S**2>=0.000
      20 -> 22         0.51708
      21 -> 22        -0.16046
      21 -> 23         0.44458
 This state for optimization and/or second-order correction.
 Total Energy, E(TD-HF/TD-DFT) =  -232.011524804
 Copying the excited state density for this state as the 1-particle RhoCI density.

 The electronic state is 1-A.
 Alpha  occ. eigenvalues --  -10.19483 -10.19362 -10.19252 -10.19236 -10.18563
 Alpha  occ. eigenvalues --  -10.18204  -0.84212  -0.74388  -0.73723  -0.61658
 Alpha  occ. eigenvalues --   -0.58855  -0.51551  -0.47495  -0.44052  -0.41797
 Alpha  occ. eigenvalues --   -0.40203  -0.35949  -0.35532  -0.31845  -0.25124
 Alpha  occ. eigenvalues --   -0.24016
 Alpha virt. eigenvalues --   -0.01488   0.00609   0.08944   0.13579   0.14561
 Alpha virt. eigenvalues --    0.15191   0.16811   0.19552   0.20016   0.28147
 Alpha virt. eigenvalues --    0.28486   0.30767   0.33337   0.46719   0.49642

 Mulliken charges:
               1
     1  C   -0.060263
     2  C   -0.097355
     3  C   -0.081415
     4  C   -0.064044
     5  C   -0.098231
     6  C   -0.085357
     7  H    0.085075
     8  H    0.083327
     9  H    0.090928
    10  H    0.071780
    11  H    0.083112
    12  H    0.072443
 Sum of Mulliken charges =  -0.00000

 Dipole moment (field-independent basis, Debye):
    X=              0.0393    Y=              0.0530    Z=              0.2560  Tot=              0.2644
 Quadrupole moment (field-independent basis, Debye-Ang):
   XX=            -31.7351   YY=            -31.4712   ZZ=            -38.4990
   XY=             -0.7523   XZ=              0.0402   YZ=             -0.4166

 Normal termination of Gaussian 16 at Fri Nov 10 20:28:00 2023.
