 Gaussian 16, Revision B.01,
 Gaussian 16:  EM64L-G16RevB.01 20-Dec-2017

 ---------------------------------
 # TD=(NStates=1) B3LYP/6-31G(d,p)
 ---------------------------------

 -------
 EMISPCT
 -------
 Symbolic Z-matrix:
 Charge =  0 Multiplicity = 1

                         Standard orientation:
 ---------------------------------------------------------------------
 Center     Atomic      Atomic             Coordinates (Angstroms)
 Number     Number       Type             X           Y           Z
 ---------------------------------------------------------------------
      1          6           0        1.040250    0.973439    0.046973
      2          6           0        1.463071   -0.344849   -0.031197
      3          6           0        0.361132   -1.297793   -0.082056
      4          6           0       -1.035686   -1.073392    0.045398
      5          6           0       -1.391361    0.325752   -0.012662
      6          6           0       -0.420886    1.348713   -0.011702
      7          1           0        1.597820    1.821639   -0.057154
      8          1           0       -0.778792    2.438021    0.015974
      9          1           0       -2.484749    0.710934    0.002580
     10          1           0       -1.689502   -1.833946    0.007457
     11          1           0        0.881663   -2.245469    0.194566
     12          1           0        2.374436   -0.482397    0.108051
 ---------------------------------------------------------------------

 SCF Done:  E(RB3LYP) =  -232.181321699     A.U. after   13 cycles

 Excitation energies and oscillator strengths:

 Excited State   1:      Singlet-A      5.1044 eV  242.89 nm  f=0.0019  <S**2>=0.000
      20 -> 22         0.44614
      20 -> 23         0.15606
      21 -> 22        -0.22519
      21 -> 23         0.47487
 This state for optimization and/or second-order correction.
 Total Energy, E(TD-HF/TD-DFT) =  -231.993736898
 Copying the excited state density for this state as the 1-particle RhoCI density.

 The electronic state is 1-A.
 Alpha  occ. eigenvalues --  -10.20403 -10.20194 -10.19968 -10.19699 -10.19056
 Alpha  occ. eigenvalues --  -10.18250  -0.83247  -0.74829  -0.72503  -0.60825
 Alpha  occ. eigenvalues --   -0.59369  -0.52013  -0.47226  -0.44172  -0.42617
 Alpha  occ. eigenvalues --   -0.39838  -0.35488  -0.33368  -0.32205  -0.25028
 Alpha  occ. eigenvalues --   -0.23680
 Alpha virt. eigenvalues --   -0.01489  -0.00553   0.09223   0.12978   0.14384
 Alpha virt. eigenvalues --    0.15244   0.16764   0.17980   0.19630   0.26171
 Alpha virt. eigenvalues --    0.26853   0.30639   0.31744   0.44857   0.45885

 Mulliken charges:
               1
     1  C   -0.084481
     2  C   -0.048777
     3  C   -0.112120
     4  C   -0.065407
     5  C   -0.090553
     6  C   -0.099436
     7  H    0.082506
     8  H    0.089645
     9  H    0.079683
    10  H    0.094738
    11  H    0.078095
    12  H    0.076108
 Sum of Mulliken charges =  -0.00000

 Dipole moment (field-independent basis, Debye):
    X=              0.0845    Y=              0.1472    Z=              0.1775  Tot=              0.2456
 Quadrupole moment (field-independent basis, Debye-Ang):
   XX=            -31.0056   YY=            -32.0116   ZZ=            -38.7562
   XY=              0.0112   XZ=              0.2933   YZ=             -0.4507

 Normal termination of Gaussian 16 at Fri Nov 10 21:06:53 2023.
