 Gaussian 16, Revision B.01,
 Gaussian 16:  EM64L-G16RevB.01 20-Dec-2017

 ---------------------------------
 # TD=(NStates=1) B3LYP/6-31G(d,p)
 ---------------------------------

 -------
 EMISPCT
 -------
 Symbolic Z-matrix:
 Charge =  0 Multiplicity = 1

                         Standard orientation:
 ---------------------------------------------------------------------
 Center     Atomic      Atomic             Coordinates (Angstroms)
 Number     Number       Type             X           Y           Z
 ---------------------------------------------------------------------
      1          6           0       -0.679358   -1.243411    0.029509
      2          6           0       -1.496069   -0.046945   -0.009450
      3          6           0       -0.742992    1.212547   -0.070640
      4          6           0        0.719112    1.241795    0.097044
      5          6           0        1.418281    0.000203   -0.113799
      6          6           0        0.726435   -1.181302    0.012319
      7          1           0       -1.134474   -2.145703    0.275403
      8          1           0        1.397565   -2.110832   -0.045887
      9          1           0        2.588924    0.024566   -0.058817
     10          1           0        1.417883    2.223542    0.298767
     11          1           0       -1.362776    2.013582   -0.030999
     12          1           0       -2.579573    0.097521   -0.108358
 ---------------------------------------------------------------------

 SCF Done:  E(RB3LYP) =  -232.204671771     A.U. after   13 cycles

 Excitation energies and oscillator strengths:

 Excited State   1:      Singlet-A      5.0691 eV  244.59 nm  f=0.0012  <S**2>=0.000
      20 -> 22         0.43842
      20 -> 23        -0.20875
      21 -> 22         0.27047
      21 -> 23         0.43668
 This state for optimization and/or second-order correction.
 Total Energy, E(TD-HF/TD-DFT) =  -232.018384786
 Copying the excited state density for this state as the 1-particle RhoCI density.

 The electronic state is 1-A.
 Alpha  occ. eigenvalues --  -10.21552 -10.20525 -10.19992 -10.19653 -10.19634
 Alpha  occ. eigenvalues --  -10.19453  -0.83269  -0.73710  -0.72636  -0.60014
 Alpha  occ. eigenvalues --   -0.58547  -0.50674  -0.45815  -0.43492  -0.41265
 Alpha  occ. eigenvalues --   -0.40121  -0.35627  -0.34073  -0.32495  -0.24603
 Alpha  occ. eigenvalues --   -0.23846
 Alpha virt. eigenvalues --   -0.01417  -0.00593   0.07353   0.11624   0.13273
 Alpha virt. eigenvalues --    0.13826   0.16344   0.17562   0.18866   0.27078
 Alpha virt. eigenvalues --    0.28303   0.30154   0.30575   0.46569   0.47301

 Mulliken charges:
               1
     1  C   -0.090562
     2  C   -0.098513
     3  C   -0.090916
     4  C   -0.091055
     5  C   -0.084889
     6  C   -0.075513
     7  H    0.088782
     8  H    0.087089
     9  H    0.083587
    10  H    0.085745
    11  H    0.084342
    12  H    0.101903
 Sum of Mulliken charges =  -0.00000

 Dipole moment (field-independent basis, Debye):
    X=             -0.0818    Y=              0.0257    Z=              0.2015  Tot=              0.2190
 Quadrupole moment (field-independent basis, Debye-Ang):
   XX=            -30.6264   YY=            -32.4657   ZZ=            -39.0191
   XY=             -0.3587   XZ=              0.1908   YZ=              0.0267

 Normal termination of Gaussian 16 at Fri Nov 10 19:39:47 2023.
