 Gaussian 16, Revision B.01,
 Gaussian 16:  EM64L-G16RevB.01 20-Dec-2017

 ---------------------------------
 # TD=(NStates=1) B3LYP/6-31G(d,p)
 ---------------------------------

 -------
 EMISPCT
 -------
 Symbolic Z-matrix:
 Charge =  0 Multiplicity = 1

                         Standard orientation:
 ---------------------------------------------------------------------
 Center     Atomic      Atomic             Coordinates (Angstroms)
 Number     Number       Type             X           Y           Z
 ---------------------------------------------------------------------
      1          6           0        0.019488    1.376499    0.042711
      2          6           0       -1.243950    0.714239   -0.025828
      3          6           0       -1.268238   -0.708668   -0.064247
      4          6           0       -0.050780   -1.384943   -0.009891
      5          6           0        1.250225   -0.731594    0.041533
      6          6           0        1.268722    0.669306   -0.013886
      7          1           0       -0.034482    2.501822   -0.093471
      8          1           0        2.253905    1.279362   -0.289505
      9          1           0        2.334311   -1.162295    0.277445
     10          1           0       -0.002700   -2.421008   -0.125839
     11          1           0       -2.236453   -1.103017    0.111477
     12          1           0       -2.167383    1.296106    0.297546
 ---------------------------------------------------------------------

 SCF Done:  E(RB3LYP) =  -232.211975682     A.U. after   13 cycles

 Excitation energies and oscillator strengths:

 Excited State   1:      Singlet-A      5.0772 eV  244.20 nm  f=0.0012  <S**2>=0.000
      20 -> 22         0.42075
      20 -> 23         0.24944
      21 -> 22         0.32203
      21 -> 23        -0.39573
 This state for optimization and/or second-order correction.
 Total Energy, E(TD-HF/TD-DFT) =  -232.025392390
 Copying the excited state density for this state as the 1-particle RhoCI density.

 The electronic state is 1-A.
 Alpha  occ. eigenvalues --  -10.20916 -10.20453 -10.19806 -10.19752 -10.19725
 Alpha  occ. eigenvalues --  -10.19311  -0.83666  -0.73981  -0.72811  -0.59928
 Alpha  occ. eigenvalues --   -0.58450  -0.50543  -0.45246  -0.44043  -0.41041
 Alpha  occ. eigenvalues --   -0.40211  -0.36421  -0.33664  -0.32223  -0.24694
 Alpha  occ. eigenvalues --   -0.24044
 Alpha virt. eigenvalues --   -0.01466  -0.00707   0.07650   0.11466   0.13077
 Alpha virt. eigenvalues --    0.14420   0.16541   0.16884   0.18622   0.27371
 Alpha virt. eigenvalues --    0.28908   0.29538   0.31948   0.47127   0.49090

 Mulliken charges:
               1
     1  C   -0.087047
     2  C   -0.102382
     3  C   -0.074512
     4  C   -0.099592
     5  C   -0.093899
     6  C   -0.086652
     7  H    0.082105
     8  H    0.088413
     9  H    0.097110
    10  H    0.090409
    11  H    0.095979
    12  H    0.090067
 Sum of Mulliken charges =  -0.00000

 Dipole moment (field-independent basis, Debye):
    X=             -0.0012    Y=             -0.0474    Z=              0.1213  Tot=              0.1302
 Quadrupole moment (field-independent basis, Debye-Ang):
   XX=            -31.0112   YY=            -32.6399   ZZ=            -38.8117
   XY=             -0.0336   XZ=             -0.7237   YZ=             -0.2749

 Normal termination of Gaussian 16 at Fri Nov 10 22:14:42 2023.
