 Gaussian 16, Revision B.01,
 Gaussian 16:  EM64L-G16RevB.01 20-Dec-2017

 ---------------------------------
 # TD=(NStates=1) B3LYP/6-31G(d,p)
 ---------------------------------

 -------
 EMISPCT
 -------
 Symbolic Z-matrix:
 Charge =  0 Multiplicity = 1

                         Standard orientation:
 ---------------------------------------------------------------------
 Center     Atomic      Atomic             Coordinates (Angstroms)
 Number     Number       Type             X           Y           Z
 ---------------------------------------------------------------------
      1          6           0       -0.983581   -1.079993   -0.014506
      2          6           0       -1.543169    0.253882   -0.004308
      3          6           0       -0.452402    1.335621    0.032058
      4          6           0        0.972755    1.089405   -0.029603
      5          6           0        1.505212   -0.295423    0.017426
      6          6           0        0.479347   -1.310703   -0.021500
      7          1           0       -1.664651   -2.013355    0.134458
      8          1           0        1.051189   -2.264656   -0.073797
      9          1           0        2.492038   -0.511506    0.125352
     10          1           0        1.713308    1.992128   -0.019311
     11          1           0       -0.975698    2.406181   -0.032302
     12          1           0       -2.485160    0.434475   -0.011812
 ---------------------------------------------------------------------

 SCF Done:  E(RB3LYP) =  -232.178372731     A.U. after   13 cycles

 Excitation energies and oscillator strengths:

 Excited State   1:      Singlet-A      4.8316 eV  256.61 nm  f=0.0061  <S**2>=0.000
      20 -> 22        -0.22673
      20 -> 23        -0.37473
      21 -> 22         0.51301
      21 -> 23        -0.21147
 This state for optimization and/or second-order correction.
 Total Energy, E(TD-HF/TD-DFT) =  -232.000814921
 Copying the excited state density for this state as the 1-particle RhoCI density.

 The electronic state is 1-A.
 Alpha  occ. eigenvalues --  -10.21850 -10.21607 -10.21464 -10.20581 -10.20231
 Alpha  occ. eigenvalues --  -10.20066  -0.81572  -0.73665  -0.71354  -0.60716
 Alpha  occ. eigenvalues --   -0.58061  -0.49732  -0.48536  -0.42914  -0.41569
 Alpha  occ. eigenvalues --   -0.37948  -0.36610  -0.33974  -0.31210  -0.24339
 Alpha  occ. eigenvalues --   -0.23506
 Alpha virt. eigenvalues --   -0.02113  -0.00970   0.08330   0.11741   0.13063
 Alpha virt. eigenvalues --    0.13523   0.14155   0.17736   0.17935   0.24684
 Alpha virt. eigenvalues --    0.26915   0.27628   0.29479   0.44634   0.47522

 Mulliken charges:
               1
     1  C   -0.098356
     2  C   -0.061160
     3  C   -0.101913
     4  C   -0.095394
     5  C   -0.080762
     6  C   -0.090577
     7  H    0.088577
     8  H    0.087401
     9  H    0.098075
    10  H    0.087838
    11  H    0.081031
    12  H    0.085238
 Sum of Mulliken charges =  -0.00000

 Dipole moment (field-independent basis, Debye):
    X=              0.0536    Y=             -0.0747    Z=              0.0827  Tot=              0.1237
 Quadrupole moment (field-independent basis, Debye-Ang):
   XX=            -29.7896   YY=            -32.7180   ZZ=            -39.4854
   XY=             -0.6250   XZ=              0.0696   YZ=             -0.2458

 Normal termination of Gaussian 16 at Fri Nov 10 20:00:14 2023.
