 Gaussian 16, Revision B.01,
 Gaussian 16:  EM64L-G16RevB.01 20-Dec-2017

 ---------------------------------
 # TD=(NStates=1) B3LYP/6-31G(d,p)
 ---------------------------------

 -------
 EMISPCT
 -------
 Symbolic Z-matrix:
 Charge =  0 Multiplicity = 1

                         Standard orientation:
 ---------------------------------------------------------------------
 Center     Atomic      Atomic             Coordinates (Angstroms)
 Number     Number       Type             X           Y           Z
 ---------------------------------------------------------------------
      1          6           0       -1.309499   -0.565981    0.047212
      2          6           0       -0.135085   -1.370577   -0.017686
      3          6           0        1.178047   -0.879695   -0.081633
      4          6           0        1.376982    0.558478   -0.033139
      5          6           0        0.135260    1.399180    0.049039
      6          6           0       -1.243330    0.816982   -0.070982
      7          1           0       -2.276405   -1.180311    0.251464
      8          1           0       -2.160143    1.513836   -0.195644
      9          1           0        0.367901    2.480593    0.134319
     10          1           0        2.307773    1.323885    0.235662
     11          1           0        2.093488   -1.527692    0.110644
     12          1           0       -0.346869   -2.360624    0.106686
 ---------------------------------------------------------------------

 SCF Done:  E(RB3LYP) =  -232.193732000     A.U. after   14 cycles

 Excitation energies and oscillator strengths:

 Excited State   1:      Singlet-A      4.9520 eV  250.37 nm  f=0.0035  <S**2>=0.000
      20 -> 22        -0.27840
      20 -> 23        -0.34657
      21 -> 22         0.44859
      21 -> 23        -0.31758
 This state for optimization and/or second-order correction.
 Total Energy, E(TD-HF/TD-DFT) =  -232.011747625
 Copying the excited state density for this state as the 1-particle RhoCI density.

 The electronic state is 1-A.
 Alpha  occ. eigenvalues --  -10.21830 -10.21185 -10.20911 -10.20897 -10.20266
 Alpha  occ. eigenvalues --  -10.18882  -0.82885  -0.73328  -0.72333  -0.59888
 Alpha  occ. eigenvalues --   -0.57843  -0.50002  -0.45520  -0.43532  -0.41493
 Alpha  occ. eigenvalues --   -0.39202  -0.35087  -0.34134  -0.32523  -0.24681
 Alpha  occ. eigenvalues --   -0.23477
 Alpha virt. eigenvalues --   -0.01478  -0.01027   0.06976   0.10157   0.12960
 Alpha virt. eigenvalues --    0.13688   0.14847   0.16782   0.18991   0.25503
 Alpha virt. eigenvalues --    0.28163   0.28392   0.31580   0.47028   0.48294

 Mulliken charges:
               1
     1  C   -0.083286
     2  C   -0.064603
     3  C   -0.103534
     4  C   -0.097068
     5  C   -0.104615
     6  C   -0.094195
     7  H    0.087795
     8  H    0.095948
     9  H    0.088751
    10  H    0.093986
    11  H    0.095859
    12  H    0.084962
 Sum of Mulliken charges =  -0.00000

 Dipole moment (field-independent basis, Debye):
    X=             -0.1213    Y=             -0.0061    Z=              0.3834  Tot=              0.4021
 Quadrupole moment (field-independent basis, Debye-Ang):
   XX=            -31.8391   YY=            -31.3784   ZZ=            -39.2392
   XY=              0.5104   XZ=              0.5650   YZ=             -0.2914

 Normal termination of Gaussian 16 at Fri Nov 10 20:56:36 2023.
