 Gaussian 16, Revision B.01,
 Gaussian 16:  EM64L-G16RevB.01 20-Dec-2017

 ---------------------------------
 # TD=(NStates=1) B3LYP/6-31G(d,p)
 ---------------------------------

 -------
 EMISPCT
 -------
 Symbolic Z-matrix:
 Charge =  0 Multiplicity = 1

                         Standard orientation:
 ---------------------------------------------------------------------
 Center     Atomic      Atomic             Coordinates (Angstroms)
 Number     Number       Type             X           Y           Z
 ---------------------------------------------------------------------
      1          6           0       -0.101985    1.395366   -0.120136
      2          6           0        1.146115    0.794676    0.025790
      3          6           0        1.301910   -0.549288    0.032915
      4          6           0        0.139906   -1.376043   -0.109635
      5          6           0       -1.168915   -0.824756   -0.037623
      6          6           0       -1.278235    0.530284    0.096728
      7          1           0       -0.413778    2.550900   -0.338873
      8          1           0       -2.337313    1.041771    0.423690
      9          1           0       -2.045993   -1.285321    0.024047
     10          1           0        0.114009   -2.385525    0.124439
     11          1           0        2.351495   -1.142444    0.106420
     12          1           0        2.098801    1.399179    0.332039
 ---------------------------------------------------------------------

 SCF Done:  E(RB3LYP) =  -232.182201234     A.U. after   14 cycles

 Excitation energies and oscillator strengths:

 Excited State   1:      Singlet-A      5.1163 eV  242.33 nm  f=0.0019  <S**2>=0.000
      20 -> 22         0.53217
      21 -> 22         0.10273
      21 -> 23        -0.45100
 This state for optimization and/or second-order correction.
 Total Energy, E(TD-HF/TD-DFT) =  -231.994181848
 Copying the excited state density for this state as the 1-particle RhoCI density.

 The electronic state is 1-A.
 Alpha  occ. eigenvalues --  -10.21129 -10.20330 -10.20198 -10.19941 -10.18898
 Alpha  occ. eigenvalues --  -10.17921  -0.84645  -0.75164  -0.72467  -0.60493
 Alpha  occ. eigenvalues --   -0.58104  -0.50690  -0.45751  -0.43634  -0.41794
 Alpha  occ. eigenvalues --   -0.39396  -0.35869  -0.34016  -0.32953  -0.25186
 Alpha  occ. eigenvalues --   -0.23113
 Alpha virt. eigenvalues --   -0.02107   0.00839   0.06144   0.11167   0.13102
 Alpha virt. eigenvalues --    0.13823   0.15644   0.17133   0.19516   0.27057
 Alpha virt. eigenvalues --    0.29526   0.31056   0.33360   0.46248   0.50129

 Mulliken charges:
               1
     1  C   -0.099148
     2  C   -0.085035
     3  C   -0.081066
     4  C   -0.100587
     5  C   -0.057216
     6  C   -0.093622
     7  H    0.091425
     8  H    0.076253
     9  H    0.083607
    10  H    0.089630
    11  H    0.088373
    12  H    0.087386
 Sum of Mulliken charges =  -0.00000

 Dipole moment (field-independent basis, Debye):
    X=             -0.2059    Y=             -0.0576    Z=              0.3743  Tot=              0.4310
 Quadrupole moment (field-independent basis, Debye-Ang):
   XX=            -31.6385   YY=            -32.3492   ZZ=            -38.5987
   XY=             -0.1922   XZ=              0.1127   YZ=             -0.4287

 Normal termination of Gaussian 16 at Fri Nov 10 21:42:22 2023.
