 Gaussian 16, Revision B.01,
 Gaussian 16:  EM64L-G16RevB.01 20-Dec-2017

 ---------------------------------
 # TD=(NStates=1) B3LYP/6-31G(d,p)
 ---------------------------------

 -------
 EMISPCT
 -------
 Symbolic Z-matrix:
 Charge =  0 Multiplicity = 1

                         Standard orientation:
 ---------------------------------------------------------------------
 Center     Atomic      Atomic             Coordinates (Angstroms)
 Number     Number       Type             X           Y           Z
 ---------------------------------------------------------------------
      1          6           0       -1.345817    0.482352   -0.005821
      2          6           0       -1.084060   -0.972387    0.008120
      3          6           0        0.292750   -1.365110   -0.014762
      4          6           0        1.349603   -0.463804   -0.016069
      5          6           0        1.073841    0.891310    0.067586
      6          6           0       -0.243118    1.428223   -0.088817
      7          1           0       -2.476292    0.723702    0.372697
      8          1           0       -0.539481    2.438308   -0.043539
      9          1           0        1.895516    1.634479    0.070211
     10          1           0        2.329230   -0.825122   -0.047554
     11          1           0        0.531957   -2.351699    0.145115
     12          1           0       -2.000127   -1.623176   -0.198357
 ---------------------------------------------------------------------

 SCF Done:  E(RB3LYP) =  -232.211911686     A.U. after   13 cycles

 Excitation energies and oscillator strengths:

 Excited State   1:      Singlet-A      5.0074 eV  247.60 nm  f=0.0002  <S**2>=0.000
      20 -> 22        -0.47597
      21 -> 22        -0.11532
      21 -> 23         0.50047
 This state for optimization and/or second-order correction.
 Total Energy, E(TD-HF/TD-DFT) =  -232.027894009
 Copying the excited state density for this state as the 1-particle RhoCI density.

 The electronic state is 1-A.
 Alpha  occ. eigenvalues --  -10.21085 -10.20381 -10.19809 -10.19741 -10.18769
 Alpha  occ. eigenvalues --  -10.18601  -0.83584  -0.73714  -0.72981  -0.60140
 Alpha  occ. eigenvalues --   -0.58708  -0.51172  -0.46303  -0.43377  -0.41606
 Alpha  occ. eigenvalues --   -0.40830  -0.35537  -0.33779  -0.33141  -0.24288
 Alpha  occ. eigenvalues --   -0.23832
 Alpha virt. eigenvalues --   -0.01163  -0.00982   0.08130   0.12829   0.14015
 Alpha virt. eigenvalues --    0.14746   0.16821   0.17232   0.19123   0.26664
 Alpha virt. eigenvalues --    0.28992   0.29686   0.31857   0.46573   0.48186

 Mulliken charges:
               1
     1  C   -0.107430
     2  C   -0.098268
     3  C   -0.083490
     4  C   -0.065567
     5  C   -0.092732
     6  C   -0.086614
     7  H    0.083179
     8  H    0.095622
     9  H    0.083470
    10  H    0.090197
    11  H    0.083974
    12  H    0.097660
 Sum of Mulliken charges =  -0.00000

 Dipole moment (field-independent basis, Debye):
    X=              0.1253    Y=             -0.0534    Z=              0.1604  Tot=              0.2105
 Quadrupole moment (field-independent basis, Debye-Ang):
   XX=            -31.3561   YY=            -31.9106   ZZ=            -38.7693
   XY=             -0.0961   XZ=             -0.2760   YZ=              0.2163

 Normal termination of Gaussian 16 at Fri Nov 10 21:15:16 2023.
