 Gaussian 16, Revision B.01,
 Gaussian 16:  EM64L-G16RevB.01 20-Dec-2017

 ---------------------------------
 # TD=(NStates=1) B3LYP/6-31G(d,p)
 ---------------------------------

 -------
 EMISPCT
 -------
 Symbolic Z-matrix:
 Charge =  0 Multiplicity = 1

                         Standard orientation:
 ---------------------------------------------------------------------
 Center     Atomic      Atomic             Coordinates (Angstroms)
 Number     Number       Type             X           Y           Z
 ---------------------------------------------------------------------
      1          6           0       -0.883383   -1.135738    0.050969
      2          6           0       -1.489022    0.169774   -0.089029
      3          6           0       -0.502307    1.356436    0.025211
      4          6           0        0.908087    1.120229    0.092961
      5          6           0        1.436330   -0.222886   -0.121951
      6          6           0        0.564059   -1.279431    0.001821
      7          1           0       -1.480794   -2.015420    0.261088
      8          1           0        0.888425   -2.288365    0.085171
      9          1           0        2.402247   -0.357657   -0.161324
     10          1           0        1.599520    1.956110    0.286185
     11          1           0       -1.145324    2.316145   -0.181673
     12          1           0       -2.466659    0.338884   -0.049341
 ---------------------------------------------------------------------

 SCF Done:  E(RB3LYP) =  -232.196973943     A.U. after   13 cycles

 Excitation energies and oscillator strengths:

 Excited State   1:      Singlet-A      4.9038 eV  252.83 nm  f=0.0023  <S**2>=0.000
      20 -> 22        -0.13595
      20 -> 23         0.43382
      21 -> 22         0.52505
      21 -> 23         0.13113
 This state for optimization and/or second-order correction.
 Total Energy, E(TD-HF/TD-DFT) =  -232.016761791
 Copying the excited state density for this state as the 1-particle RhoCI density.

 The electronic state is 1-A.
 Alpha  occ. eigenvalues --  -10.21309 -10.20536 -10.19740 -10.19610 -10.19055
 Alpha  occ. eigenvalues --  -10.18707  -0.82548  -0.73498  -0.72471  -0.60800
 Alpha  occ. eigenvalues --   -0.58658  -0.51058  -0.48243  -0.42721  -0.42191
 Alpha  occ. eigenvalues --   -0.40357  -0.35544  -0.34483  -0.31915  -0.23966
 Alpha  occ. eigenvalues --   -0.23645
 Alpha virt. eigenvalues --   -0.01599  -0.00809   0.09615   0.12423   0.13415
 Alpha virt. eigenvalues --    0.14987   0.17183   0.18416   0.19480   0.25163
 Alpha virt. eigenvalues --    0.28027   0.29695   0.30895   0.47146   0.48289

 Mulliken charges:
               1
     1  C   -0.087817
     2  C   -0.087790
     3  C   -0.105612
     4  C   -0.107707
     5  C   -0.054311
     6  C   -0.085673
     7  H    0.086679
     8  H    0.085734
     9  H    0.080683
    10  H    0.094610
    11  H    0.093845
    12  H    0.087358
 Sum of Mulliken charges =  -0.00000

 Dipole moment (field-independent basis, Debye):
    X=              0.0462    Y=             -0.1204    Z=              0.1386  Tot=              0.1893
 Quadrupole moment (field-independent basis, Debye-Ang):
   XX=            -30.6235   YY=            -31.9328   ZZ=            -38.8491
   XY=             -0.2502   XZ=              0.0863   YZ=             -0.4462

 Normal termination of Gaussian 16 at Fri Nov 10 19:40:25 2023.
