 Gaussian 16, Revision B.01,
 Gaussian 16:  EM64L-G16RevB.01 20-Dec-2017

 ---------------------------------
 # TD=(NStates=1) B3LYP/6-31G(d,p)
 ---------------------------------

 -------
 EMISPCT
 -------
 Symbolic Z-matrix:
 Charge =  0 Multiplicity = 1

                         Standard orientation:
 ---------------------------------------------------------------------
 Center     Atomic      Atomic             Coordinates (Angstroms)
 Number     Number       Type             X           Y           Z
 ---------------------------------------------------------------------
      1          6           0        1.302252    0.506677    0.024897
      2          6           0        0.197529    1.404785   -0.033866
      3          6           0       -1.158720    0.870777   -0.050354
      4          6           0       -1.326329   -0.558492    0.058534
      5          6           0       -0.194467   -1.405573   -0.109993
      6          6           0        1.152766   -0.836316    0.049853
      7          1           0        2.280630    1.029944   -0.116746
      8          1           0        2.150710   -1.431510    0.215736
      9          1           0       -0.344286   -2.387541   -0.103601
     10          1           0       -2.296535   -0.976089    0.165336
     11          1           0       -2.047245    1.551308    0.183004
     12          1           0        0.418541    2.322747    0.021840
 ---------------------------------------------------------------------

 SCF Done:  E(RB3LYP) =  -232.201692001     A.U. after   13 cycles

 Excitation energies and oscillator strengths:

 Excited State   1:      Singlet-A      5.0970 eV  243.25 nm  f=0.0008  <S**2>=0.000
      20 -> 22         0.52365
      21 -> 23         0.46964
 This state for optimization and/or second-order correction.
 Total Energy, E(TD-HF/TD-DFT) =  -232.014381135
 Copying the excited state density for this state as the 1-particle RhoCI density.

 The electronic state is 1-A.
 Alpha  occ. eigenvalues --  -10.20375 -10.20181 -10.19642 -10.19227 -10.18726
 Alpha  occ. eigenvalues --  -10.18242  -0.83473  -0.74275  -0.72982  -0.61440
 Alpha  occ. eigenvalues --   -0.58400  -0.51224  -0.47387  -0.43101  -0.41777
 Alpha  occ. eigenvalues --   -0.40746  -0.35431  -0.35142  -0.32628  -0.24694
 Alpha  occ. eigenvalues --   -0.23648
 Alpha virt. eigenvalues --   -0.01697   0.00019   0.09060   0.12459   0.14400
 Alpha virt. eigenvalues --    0.15123   0.16616   0.18740   0.20384   0.28232
 Alpha virt. eigenvalues --    0.28739   0.29469   0.31566   0.47305   0.48529

 Mulliken charges:
               1
     1  C   -0.078257
     2  C   -0.052752
     3  C   -0.102444
     4  C   -0.088337
     5  C   -0.083905
     6  C   -0.094846
     7  H    0.084208
     8  H    0.086998
     9  H    0.083025
    10  H    0.092097
    11  H    0.085728
    12  H    0.068485
 Sum of Mulliken charges =  -0.00000

 Dipole moment (field-independent basis, Debye):
    X=              0.0138    Y=              0.0008    Z=              0.2230  Tot=              0.2234
 Quadrupole moment (field-independent basis, Debye-Ang):
   XX=            -31.3327   YY=            -31.5996   ZZ=            -38.6654
   XY=              0.5570   XZ=             -0.4629   YZ=              0.0191

 Normal termination of Gaussian 16 at Fri Nov 10 21:22:50 2023.
