 Gaussian 16, Revision B.01,
 Gaussian 16:  EM64L-G16RevB.01 20-Dec-2017

 ---------------------------------
 # TD=(NStates=1) B3LYP/6-31G(d,p)
 ---------------------------------

 -------
 EMISPCT
 -------
 Symbolic Z-matrix:
 Charge =  0 Multiplicity = 1

                         Standard orientation:
 ---------------------------------------------------------------------
 Center     Atomic      Atomic             Coordinates (Angstroms)
 Number     Number       Type             X           Y           Z
 ---------------------------------------------------------------------
      1          6           0        1.195341   -0.748505   -0.061673
      2          6           0        1.296741    0.685742    0.000123
      3          6           0        0.054351    1.387165    0.022296
      4          6           0       -1.243061    0.729606   -0.103125
      5          6           0       -1.273081   -0.670532    0.004919
      6          6           0       -0.032024   -1.440468    0.089426
      7          1           0        2.160371   -1.330217   -0.052397
      8          1           0       -0.034889   -2.345568   -0.044664
      9          1           0       -2.204708   -1.205466    0.164668
     10          1           0       -2.111944    1.422956   -0.162745
     11          1           0       -0.046312    2.519170    0.440686
     12          1           0        2.247875    1.281082   -0.057345
 ---------------------------------------------------------------------

 SCF Done:  E(RB3LYP) =  -232.194994435     A.U. after   12 cycles

 Excitation energies and oscillator strengths:

 Excited State   1:      Singlet-A      5.0193 eV  247.01 nm  f=0.0001  <S**2>=0.000
      20 -> 22        -0.48383
      21 -> 23         0.51439
 This state for optimization and/or second-order correction.
 Total Energy, E(TD-HF/TD-DFT) =  -232.010537048
 Copying the excited state density for this state as the 1-particle RhoCI density.

 The electronic state is 1-A.
 Alpha  occ. eigenvalues --  -10.20846 -10.20255 -10.20106 -10.20101 -10.20028
 Alpha  occ. eigenvalues --  -10.18108  -0.83184  -0.73465  -0.73337  -0.59990
 Alpha  occ. eigenvalues --   -0.59091  -0.51227  -0.46166  -0.43029  -0.41499
 Alpha  occ. eigenvalues --   -0.41302  -0.35286  -0.33756  -0.33269  -0.24590
 Alpha  occ. eigenvalues --   -0.23613
 Alpha virt. eigenvalues --   -0.01487  -0.00655   0.07911   0.13090   0.13663
 Alpha virt. eigenvalues --    0.14491   0.16248   0.16899   0.19575   0.26600
 Alpha virt. eigenvalues --    0.28132   0.30479   0.31290   0.46738   0.47560

 Mulliken charges:
               1
     1  C   -0.104145
     2  C   -0.086860
     3  C   -0.097934
     4  C   -0.078540
     5  C   -0.103792
     6  C   -0.045396
     7  H    0.083189
     8  H    0.070662
     9  H    0.090717
    10  H    0.094732
    11  H    0.078835
    12  H    0.098531
 Sum of Mulliken charges =  -0.00000

 Dipole moment (field-independent basis, Debye):
    X=             -0.0764    Y=             -0.0401    Z=              0.1334  Tot=              0.1589
 Quadrupole moment (field-independent basis, Debye-Ang):
   XX=            -31.4915   YY=            -31.7107   ZZ=            -38.8132
   XY=             -0.0984   XZ=             -0.2514   YZ=              0.5397

 Normal termination of Gaussian 16 at Fri Nov 10 22:23:18 2023.
