 Gaussian 16, Revision B.01,
 Gaussian 16:  EM64L-G16RevB.01 20-Dec-2017

 ---------------------------------
 # TD=(NStates=1) B3LYP/6-31G(d,p)
 ---------------------------------

 -------
 EMISPCT
 -------
 Symbolic Z-matrix:
 Charge =  0 Multiplicity = 1

                         Standard orientation:
 ---------------------------------------------------------------------
 Center     Atomic      Atomic             Coordinates (Angstroms)
 Number     Number       Type             X           Y           Z
 ---------------------------------------------------------------------
      1          6           0       -0.287751    1.361918   -0.147519
      2          6           0        1.031387    0.896962    0.100127
      3          6           0        1.331739   -0.423445   -0.037912
      4          6           0        0.315027   -1.364935   -0.032388
      5          6           0       -1.067496   -0.996657    0.014625
      6          6           0       -1.336737    0.458596    0.108475
      7          1           0       -0.512690    2.460275   -0.175259
      8          1           0       -2.401262    0.875850   -0.020776
      9          1           0       -1.885242   -1.717755   -0.039124
     10          1           0        0.584539   -2.318971    0.039757
     11          1           0        2.490281   -0.671409   -0.113828
     12          1           0        1.807354    1.777372    0.276784
 ---------------------------------------------------------------------

 SCF Done:  E(RB3LYP) =  -232.208041371     A.U. after   13 cycles

 Excitation energies and oscillator strengths:

 Excited State   1:      Singlet-A      5.1141 eV  242.44 nm  f=0.0005  <S**2>=0.000
      20 -> 22         0.47535
      21 -> 23         0.52224
 This state for optimization and/or second-order correction.
 Total Energy, E(TD-HF/TD-DFT) =  -232.020102885
 Copying the excited state density for this state as the 1-particle RhoCI density.

 The electronic state is 1-A.
 Alpha  occ. eigenvalues --  -10.20369 -10.20332 -10.19782 -10.19646 -10.19529
 Alpha  occ. eigenvalues --  -10.18540  -0.84319  -0.74050  -0.73083  -0.59926
 Alpha  occ. eigenvalues --   -0.58671  -0.50865  -0.45538  -0.43334  -0.41432
 Alpha  occ. eigenvalues --   -0.40640  -0.35984  -0.34400  -0.32695  -0.24703
 Alpha  occ. eigenvalues --   -0.23709
 Alpha virt. eigenvalues --   -0.01092  -0.00456   0.07345   0.12368   0.13658
 Alpha virt. eigenvalues --    0.13853   0.16446   0.17785   0.18548   0.27752
 Alpha virt. eigenvalues --    0.29047   0.31453   0.32127   0.46160   0.47153

 Mulliken charges:
               1
     1  C   -0.083756
     2  C   -0.082257
     3  C   -0.076266
     4  C   -0.073438
     5  C   -0.098158
     6  C   -0.100364
     7  H    0.087500
     8  H    0.081594
     9  H    0.097612
    10  H    0.082636
    11  H    0.085906
    12  H    0.078988
 Sum of Mulliken charges =  -0.00000

 Dipole moment (field-independent basis, Debye):
    X=              0.0260    Y=             -0.0121    Z=             -0.0336  Tot=              0.0441
 Quadrupole moment (field-independent basis, Debye-Ang):
   XX=            -31.9626   YY=            -31.4995   ZZ=            -38.8218
   XY=              0.1185   XZ=              0.3340   YZ=              0.0461

 Normal termination of Gaussian 16 at Fri Nov 10 21:19:28 2023.
