 Gaussian 16, Revision B.01,
 Gaussian 16:  EM64L-G16RevB.01 20-Dec-2017

 ---------------------------------
 # TD=(NStates=1) B3LYP/6-31G(d,p)
 ---------------------------------

 -------
 EMISPCT
 -------
 Symbolic Z-matrix:
 Charge =  0 Multiplicity = 1

                         Standard orientation:
 ---------------------------------------------------------------------
 Center     Atomic      Atomic             Coordinates (Angstroms)
 Number     Number       Type             X           Y           Z
 ---------------------------------------------------------------------
      1          6           0       -1.077360    0.876843    0.012785
      2          6           0       -1.434258   -0.463155   -0.027305
      3          6           0       -0.229156   -1.268481   -0.042284
      4          6           0        1.163787   -0.967294    0.132614
      5          6           0        1.372261    0.475731   -0.085333
      6          6           0        0.229099    1.299660   -0.005596
      7          1           0       -1.965357    1.609585    0.208117
      8          1           0        0.565584    2.332683    0.003017
      9          1           0        2.449631    1.042794   -0.042110
     10          1           0        2.027049   -1.651416    0.056280
     11          1           0       -0.672974   -2.216389   -0.198711
     12          1           0       -2.550168   -0.837083    0.064126
 ---------------------------------------------------------------------

 SCF Done:  E(RB3LYP) =  -232.186087840     A.U. after   14 cycles

 Excitation energies and oscillator strengths:

 Excited State   1:      Singlet-A      5.1034 eV  242.95 nm  f=0.0109  <S**2>=0.000
      20 -> 22        -0.13190
      20 -> 23         0.37861
      21 -> 22         0.56428
      21 -> 23         0.13923
 This state for optimization and/or second-order correction.
 Total Energy, E(TD-HF/TD-DFT) =  -231.998542232
 Copying the excited state density for this state as the 1-particle RhoCI density.

 The electronic state is 1-A.
 Alpha  occ. eigenvalues --  -10.21210 -10.21097 -10.20425 -10.19673 -10.19627
 Alpha  occ. eigenvalues --  -10.18665  -0.84187  -0.73934  -0.73089  -0.60091
 Alpha  occ. eigenvalues --   -0.58193  -0.50789  -0.44860  -0.44471  -0.41870
 Alpha  occ. eigenvalues --   -0.38626  -0.35648  -0.35203  -0.30529  -0.25051
 Alpha  occ. eigenvalues --   -0.23872
 Alpha virt. eigenvalues --   -0.01512  -0.00252   0.06832   0.10773   0.13280
 Alpha virt. eigenvalues --    0.14141   0.15637   0.17411   0.18360   0.25392
 Alpha virt. eigenvalues --    0.28681   0.29935   0.33280   0.45702   0.46202

 Mulliken charges:
               1
     1  C   -0.063583
     2  C   -0.108238
     3  C   -0.092461
     4  C   -0.092655
     5  C   -0.105243
     6  C   -0.067115
     7  H    0.070702
     8  H    0.085130
     9  H    0.081412
    10  H    0.105081
    11  H    0.078713
    12  H    0.108257
 Sum of Mulliken charges =  -0.00000

 Dipole moment (field-independent basis, Debye):
    X=             -0.0823    Y=             -0.0457    Z=              0.0518  Tot=              0.1074
 Quadrupole moment (field-independent basis, Debye-Ang):
   XX=            -30.2494   YY=            -33.2088   ZZ=            -39.0358
   XY=              0.7235   XZ=             -0.2937   YZ=              0.4081

 Normal termination of Gaussian 16 at Fri Nov 10 21:45:06 2023.
