 Gaussian 16, Revision B.01,
 Gaussian 16:  EM64L-G16RevB.01 20-Dec-2017

 ---------------------------------
 # TD=(NStates=1) B3LYP/6-31G(d,p)
 ---------------------------------

 -------
 EMISPCT
 -------
 Symbolic Z-matrix:
 Charge =  0 Multiplicity = 1

                         Standard orientation:
 ---------------------------------------------------------------------
 Center     Atomic      Atomic             Coordinates (Angstroms)
 Number     Number       Type             X           Y           Z
 ---------------------------------------------------------------------
      1          6           0       -1.389030   -0.383036   -0.011004
      2          6           0       -0.368731   -1.360397    0.021492
      3          6           0        1.019998   -1.005245   -0.018464
      4          6           0        1.394797    0.359869   -0.018488
      5          6           0        0.374861    1.415762   -0.053131
      6          6           0       -1.036807    0.967626    0.050888
      7          1           0       -2.523757   -0.519661   -0.012866
      8          1           0       -1.720611    1.781570   -0.071526
      9          1           0        0.688263    2.472654    0.153070
     10          1           0        2.531247    0.462609    0.049199
     11          1           0        1.772611   -1.741039    0.125758
     12          1           0       -0.718281   -2.423604   -0.071389
 ---------------------------------------------------------------------

 SCF Done:  E(RB3LYP) =  -232.226061631     A.U. after   13 cycles

 Excitation energies and oscillator strengths:

 Excited State   1:      Singlet-A      5.1379 eV  241.31 nm  f=0.0002  <S**2>=0.000
      20 -> 22         0.50901
      21 -> 23         0.48840
 This state for optimization and/or second-order correction.
 Total Energy, E(TD-HF/TD-DFT) =  -232.037246393
 Copying the excited state density for this state as the 1-particle RhoCI density.

 The electronic state is 1-A.
 Alpha  occ. eigenvalues --  -10.20836 -10.20451 -10.20175 -10.19990 -10.19660
 Alpha  occ. eigenvalues --  -10.19415  -0.83100  -0.73883  -0.72396  -0.59988
 Alpha  occ. eigenvalues --   -0.58541  -0.50476  -0.46468  -0.42923  -0.41194
 Alpha  occ. eigenvalues --   -0.40533  -0.34897  -0.34231  -0.33096  -0.24904
 Alpha  occ. eigenvalues --   -0.23807
 Alpha virt. eigenvalues --   -0.01636  -0.00202   0.08309   0.12820   0.13560
 Alpha virt. eigenvalues --    0.14494   0.15651   0.17558   0.18057   0.27250
 Alpha virt. eigenvalues --    0.28346   0.29801   0.30251   0.45508   0.49261

 Mulliken charges:
               1
     1  C   -0.076266
     2  C   -0.098261
     3  C   -0.079721
     4  C   -0.089099
     5  C   -0.110895
     6  C   -0.092953
     7  H    0.093301
     8  H    0.091059
     9  H    0.096577
    10  H    0.086723
    11  H    0.092508
    12  H    0.087027
 Sum of Mulliken charges =  -0.00000

 Dipole moment (field-independent basis, Debye):
    X=             -0.0039    Y=             -0.0268    Z=              0.1195  Tot=              0.1225
 Quadrupole moment (field-independent basis, Debye-Ang):
   XX=            -31.1522   YY=            -31.8496   ZZ=            -39.0883
   XY=             -0.4406   XZ=              0.5686   YZ=              0.1984

 Normal termination of Gaussian 16 at Fri Nov 10 19:41:58 2023.
