 Gaussian 16, Revision B.01,
 Gaussian 16:  EM64L-G16RevB.01 20-Dec-2017

 ---------------------------------
 # TD=(NStates=1) B3LYP/6-31G(d,p)
 ---------------------------------

 -------
 EMISPCT
 -------
 Symbolic Z-matrix:
 Charge =  0 Multiplicity = 1

                         Standard orientation:
 ---------------------------------------------------------------------
 Center     Atomic      Atomic             Coordinates (Angstroms)
 Number     Number       Type             X           Y           Z
 ---------------------------------------------------------------------
      1          6           0        1.365814   -0.448932    0.082062
      2          6           0        0.328017   -1.306474   -0.089200
      3          6           0       -1.054351   -0.910769   -0.046065
      4          6           0       -1.368368    0.455308    0.087898
      5          6           0       -0.288594    1.386382   -0.124736
      6          6           0        1.067880    0.909066    0.050539
      7          1           0        2.396718   -1.013722    0.036957
      8          1           0        1.783943    1.719683   -0.023225
      9          1           0       -0.467691    2.435208   -0.059796
     10          1           0       -2.399895    0.574300    0.214605
     11          1           0       -1.865874   -1.766869    0.086807
     12          1           0        0.250413   -2.456091   -0.018343
 ---------------------------------------------------------------------

 SCF Done:  E(RB3LYP) =  -232.206910304     A.U. after   13 cycles

 Excitation energies and oscillator strengths:

 Excited State   1:      Singlet-A      5.2574 eV  235.83 nm  f=0.0008  <S**2>=0.000
      20 -> 22         0.47029
      20 -> 23         0.11650
      21 -> 22        -0.15664
      21 -> 23         0.49017
 This state for optimization and/or second-order correction.
 Total Energy, E(TD-HF/TD-DFT) =  -232.013705437
 Copying the excited state density for this state as the 1-particle RhoCI density.

 The electronic state is 1-A.
 Alpha  occ. eigenvalues --  -10.20059 -10.19964 -10.19916 -10.19722 -10.19248
 Alpha  occ. eigenvalues --  -10.19239  -0.84319  -0.74406  -0.73075  -0.60045
 Alpha  occ. eigenvalues --   -0.59049  -0.51092  -0.44941  -0.44085  -0.42134
 Alpha  occ. eigenvalues --   -0.39812  -0.35762  -0.33960  -0.32155  -0.25178
 Alpha  occ. eigenvalues --   -0.24020
 Alpha virt. eigenvalues --   -0.01111  -0.00249   0.07319   0.12155   0.13709
 Alpha virt. eigenvalues --    0.14463   0.15775   0.17843   0.19122   0.27503
 Alpha virt. eigenvalues --    0.29576   0.30446   0.31258   0.46903   0.48447

 Mulliken charges:
               1
     1  C   -0.077153
     2  C   -0.068074
     3  C   -0.104045
     4  C   -0.070770
     5  C   -0.100866
     6  C   -0.107863
     7  H    0.093851
     8  H    0.093679
     9  H    0.091128
    10  H    0.088729
    11  H    0.081070
    12  H    0.080312
 Sum of Mulliken charges =  -0.00000

 Dipole moment (field-independent basis, Debye):
    X=             -0.1416    Y=              0.0019    Z=              0.1703  Tot=              0.2214
 Quadrupole moment (field-independent basis, Debye-Ang):
   XX=            -31.9493   YY=            -31.6268   ZZ=            -38.8628
   XY=              0.4600   XZ=             -0.5400   YZ=             -0.1941

 Normal termination of Gaussian 16 at Fri Nov 10 21:29:08 2023.
