 Gaussian 16, Revision B.01,
 Gaussian 16:  EM64L-G16RevB.01 20-Dec-2017

 ---------------------------------
 # TD=(NStates=1) B3LYP/6-31G(d,p)
 ---------------------------------

 -------
 EMISPCT
 -------
 Symbolic Z-matrix:
 Charge =  0 Multiplicity = 1

                         Standard orientation:
 ---------------------------------------------------------------------
 Center     Atomic      Atomic             Coordinates (Angstroms)
 Number     Number       Type             X           Y           Z
 ---------------------------------------------------------------------
      1          6           0       -1.068594   -0.911920   -0.000910
      2          6           0       -1.362958    0.481867   -0.059487
      3          6           0       -0.240297    1.374433   -0.005438
      4          6           0        1.096641    0.896887    0.108844
      5          6           0        1.339558   -0.473549   -0.092281
      6          6           0        0.277781   -1.378607    0.037724
      7          1           0       -1.887534   -1.583685    0.056285
      8          1           0        0.308230   -2.401176    0.165240
      9          1           0        2.363108   -0.819602   -0.165515
     10          1           0        1.909229    1.664501   -0.023191
     11          1           0       -0.567083    2.435406    0.022064
     12          1           0       -2.378739    0.769897    0.014406
 ---------------------------------------------------------------------

 SCF Done:  E(RB3LYP) =  -232.234948304     A.U. after   12 cycles

 Excitation energies and oscillator strengths:

 Excited State   1:      Singlet-A      5.2095 eV  237.99 nm  f=0.0009  <S**2>=0.000
      20 -> 22        -0.12789
      20 -> 23         0.45373
      21 -> 22         0.50755
      21 -> 23         0.14052
 This state for optimization and/or second-order correction.
 Total Energy, E(TD-HF/TD-DFT) =  -232.043501242
 Copying the excited state density for this state as the 1-particle RhoCI density.

 The electronic state is 1-A.
 Alpha  occ. eigenvalues --  -10.19818 -10.19726 -10.19501 -10.18954 -10.18807
 Alpha  occ. eigenvalues --  -10.18671  -0.83771  -0.73852  -0.73387  -0.60026
 Alpha  occ. eigenvalues --   -0.59383  -0.51471  -0.46645  -0.43452  -0.41863
 Alpha  occ. eigenvalues --   -0.41029  -0.35349  -0.34309  -0.33247  -0.24541
 Alpha  occ. eigenvalues --   -0.24069
 Alpha virt. eigenvalues --   -0.00654  -0.00453   0.09423   0.13762   0.14687
 Alpha virt. eigenvalues --    0.14935   0.17208   0.17603   0.20084   0.28613
 Alpha virt. eigenvalues --    0.29210   0.30634   0.30877   0.47243   0.49312

 Mulliken charges:
               1
     1  C   -0.093330
     2  C   -0.076936
     3  C   -0.096410
     4  C   -0.093382
     5  C   -0.092566
     6  C   -0.068676
     7  H    0.082629
     8  H    0.085067
     9  H    0.090113
    10  H    0.089323
    11  H    0.085559
    12  H    0.088609
 Sum of Mulliken charges =  -0.00000

 Dipole moment (field-independent basis, Debye):
    X=             -0.1543    Y=             -0.1135    Z=              0.0377  Tot=              0.1952
 Quadrupole moment (field-independent basis, Debye-Ang):
   XX=            -31.1678   YY=            -31.7694   ZZ=            -38.6960
   XY=              0.0492   XZ=             -0.4832   YZ=             -0.2990

 Normal termination of Gaussian 16 at Fri Nov 10 22:19:27 2023.
