 Gaussian 16, Revision B.01,
 Gaussian 16:  EM64L-G16RevB.01 20-Dec-2017

 ---------------------------------
 # TD=(NStates=1) B3LYP/6-31G(d,p)
 ---------------------------------

 -------
 EMISPCT
 -------
 Symbolic Z-matrix:
 Charge =  0 Multiplicity = 1

                         Standard orientation:
 ---------------------------------------------------------------------
 Center     Atomic      Atomic             Coordinates (Angstroms)
 Number     Number       Type             X           Y           Z
 ---------------------------------------------------------------------
      1          6           0       -1.179730   -0.793775    0.015859
      2          6           0       -1.317596    0.591660   -0.042247
      3          6           0       -0.116216    1.426347   -0.004393
      4          6           0        1.126713    0.822766   -0.000913
      5          6           0        1.303458   -0.633160   -0.061951
      6          6           0        0.128239   -1.371675   -0.013517
      7          1           0       -2.054014   -1.489654    0.075901
      8          1           0        0.396776   -2.574976    0.170678
      9          1           0        2.339719   -1.000308    0.033339
     10          1           0        2.023671    1.415802    0.241209
     11          1           0       -0.024999    2.544926    0.036426
     12          1           0       -2.350359    0.851235    0.085418
 ---------------------------------------------------------------------

 SCF Done:  E(RB3LYP) =  -232.219460913     A.U. after   13 cycles

 Excitation energies and oscillator strengths:

 Excited State   1:      Singlet-A      5.3009 eV  233.89 nm  f=0.0021  <S**2>=0.000
      20 -> 22         0.48551
      20 -> 23         0.19662
      21 -> 22        -0.23856
      21 -> 23         0.41014
 This state for optimization and/or second-order correction.
 Total Energy, E(TD-HF/TD-DFT) =  -232.024656646
 Copying the excited state density for this state as the 1-particle RhoCI density.

 The electronic state is 1-A.
 Alpha  occ. eigenvalues --  -10.20658 -10.20169 -10.20059 -10.19913 -10.19693
 Alpha  occ. eigenvalues --  -10.19353  -0.83784  -0.73918  -0.73238  -0.59901
 Alpha  occ. eigenvalues --   -0.58461  -0.50663  -0.45775  -0.43412  -0.41245
 Alpha  occ. eigenvalues --   -0.40322  -0.35472  -0.34858  -0.31930  -0.24601
 Alpha  occ. eigenvalues --   -0.24572
 Alpha virt. eigenvalues --   -0.01004   0.00048   0.07187   0.12074   0.13682
 Alpha virt. eigenvalues --    0.14034   0.15376   0.17357   0.18934   0.27372
 Alpha virt. eigenvalues --    0.28887   0.29787   0.31884   0.45677   0.50245

 Mulliken charges:
               1
     1  C   -0.090430
     2  C   -0.095238
     3  C   -0.088247
     4  C   -0.093633
     5  C   -0.078931
     6  C   -0.083942
     7  H    0.096339
     8  H    0.065990
     9  H    0.096160
    10  H    0.085782
    11  H    0.091909
    12  H    0.094241
 Sum of Mulliken charges =  -0.00000

 Dipole moment (field-independent basis, Debye):
    X=              0.0834    Y=              0.0674    Z=              0.3722  Tot=              0.3874
 Quadrupole moment (field-independent basis, Debye-Ang):
   XX=            -30.8623   YY=            -32.5719   ZZ=            -38.9689
   XY=              0.3569   XZ=              0.2255   YZ=             -0.0358

 Normal termination of Gaussian 16 at Fri Nov 10 22:43:58 2023.
