 Gaussian 16, Revision B.01,
 Gaussian 16:  EM64L-G16RevB.01 20-Dec-2017

 ---------------------------------
 # TD=(NStates=1) B3LYP/6-31G(d,p)
 ---------------------------------

 -------
 EMISPCT
 -------
 Symbolic Z-matrix:
 Charge =  0 Multiplicity = 1

                         Standard orientation:
 ---------------------------------------------------------------------
 Center     Atomic      Atomic             Coordinates (Angstroms)
 Number     Number       Type             X           Y           Z
 ---------------------------------------------------------------------
      1          6           0       -1.385974    0.388379   -0.043236
      2          6           0       -0.323811    1.399272   -0.039130
      3          6           0        1.015278    0.906401    0.112334
      4          6           0        1.398470   -0.333867   -0.156265
      5          6           0        0.321231   -1.394346    0.047139
      6          6           0       -1.060750   -0.965441   -0.012709
      7          1           0       -2.372929    0.627136   -0.081134
      8          1           0       -1.908402   -1.651829    0.156363
      9          1           0        0.760264   -2.308905    0.271395
     10          1           0        2.384592   -0.949678   -0.100209
     11          1           0        1.800759    1.801896    0.131245
     12          1           0       -0.450950    2.478991    0.173541
 ---------------------------------------------------------------------

 SCF Done:  E(RB3LYP) =  -232.190494971     A.U. after   14 cycles

 Excitation energies and oscillator strengths:

 Excited State   1:      Singlet-A      5.0623 eV  244.92 nm  f=0.0063  <S**2>=0.000
      20 -> 22         0.48086
      21 -> 22        -0.22752
      21 -> 23        -0.45807
 This state for optimization and/or second-order correction.
 Total Energy, E(TD-HF/TD-DFT) =  -232.004458720
 Copying the excited state density for this state as the 1-particle RhoCI density.

 The electronic state is 1-A.
 Alpha  occ. eigenvalues --  -10.20204 -10.20169 -10.20125 -10.19903 -10.19793
 Alpha  occ. eigenvalues --  -10.19302  -0.83589  -0.74678  -0.72341  -0.60674
 Alpha  occ. eigenvalues --   -0.58537  -0.51021  -0.46320  -0.43701  -0.40875
 Alpha  occ. eigenvalues --   -0.40252  -0.36529  -0.34848  -0.30700  -0.25642
 Alpha  occ. eigenvalues --   -0.23013
 Alpha virt. eigenvalues --   -0.02621   0.00529   0.07676   0.12275   0.13001
 Alpha virt. eigenvalues --    0.13187   0.17115   0.18598   0.18964   0.24859
 Alpha virt. eigenvalues --    0.28435   0.29314   0.34005   0.44780   0.46505

 Mulliken charges:
               1
     1  C   -0.076550
     2  C   -0.097199
     3  C   -0.080590
     4  C   -0.082236
     5  C   -0.108447
     6  C   -0.079228
     7  H    0.086932
     8  H    0.086446
     9  H    0.096351
    10  H    0.090152
    11  H    0.066877
    12  H    0.097492
 Sum of Mulliken charges =  -0.00000

 Dipole moment (field-independent basis, Debye):
    X=             -0.1126    Y=             -0.1812    Z=              0.3601  Tot=              0.4185
 Quadrupole moment (field-independent basis, Debye-Ang):
   XX=            -31.8123   YY=            -31.6654   ZZ=            -38.8521
   XY=             -0.8838   XZ=              0.0191   YZ=             -0.2446

 Normal termination of Gaussian 16 at Fri Nov 10 22:00:08 2023.
