 Gaussian 16, Revision B.01,
 Gaussian 16:  EM64L-G16RevB.01 20-Dec-2017

 ---------------------------------
 # TD=(NStates=1) B3LYP/6-31G(d,p)
 ---------------------------------

 -------
 EMISPCT
 -------
 Symbolic Z-matrix:
 Charge =  0 Multiplicity = 1

                         Standard orientation:
 ---------------------------------------------------------------------
 Center     Atomic      Atomic             Coordinates (Angstroms)
 Number     Number       Type             X           Y           Z
 ---------------------------------------------------------------------
      1          6           0       -0.010020    1.362905   -0.014404
      2          6           0        1.229441    0.736734   -0.035097
      3          6           0        1.286784   -0.691692   -0.015713
      4          6           0        0.061629   -1.336621    0.049226
      5          6           0       -1.250848   -0.738083   -0.010989
      6          6           0       -1.305330    0.689976   -0.005623
      7          1           0        0.193341    2.461633   -0.063175
      8          1           0       -2.221277    1.188701    0.125600
      9          1           0       -2.208283   -1.346522    0.002013
     10          1           0        0.081313   -2.464229   -0.143356
     11          1           0        2.154123   -1.356985    0.053212
     12          1           0        1.930854    1.378091    0.221307
 ---------------------------------------------------------------------

 SCF Done:  E(RB3LYP) =  -232.215417416     A.U. after   13 cycles

 Excitation energies and oscillator strengths:

 Excited State   1:      Singlet-A      5.2043 eV  238.23 nm  f=0.0031  <S**2>=0.000
      20 -> 23         0.45358
      21 -> 22         0.54169
 This state for optimization and/or second-order correction.
 Total Energy, E(TD-HF/TD-DFT) =  -232.024161343
 Copying the excited state density for this state as the 1-particle RhoCI density.

 The electronic state is 1-A.
 Alpha  occ. eigenvalues --  -10.20445 -10.19967 -10.19577 -10.19570 -10.19470
 Alpha  occ. eigenvalues --  -10.18164  -0.83814  -0.74194  -0.73391  -0.60722
 Alpha  occ. eigenvalues --   -0.58327  -0.51636  -0.46506  -0.43109  -0.42810
 Alpha  occ. eigenvalues --   -0.39449  -0.35854  -0.34835  -0.32231  -0.24613
 Alpha  occ. eigenvalues --   -0.24330
 Alpha virt. eigenvalues --   -0.01238  -0.00203   0.08809   0.12994   0.14118
 Alpha virt. eigenvalues --    0.14739   0.16941   0.17779   0.20103   0.27463
 Alpha virt. eigenvalues --    0.29023   0.29920   0.30714   0.47167   0.48484

 Mulliken charges:
               1
     1  C   -0.098537
     2  C   -0.071480
     3  C   -0.083345
     4  C   -0.088657
     5  C   -0.094446
     6  C   -0.085122
     7  H    0.080732
     8  H    0.093328
     9  H    0.095149
    10  H    0.073221
    11  H    0.094320
    12  H    0.084836
 Sum of Mulliken charges =  -0.00000

 Dipole moment (field-independent basis, Debye):
    X=             -0.0654    Y=              0.0526    Z=              0.1429  Tot=              0.1657
 Quadrupole moment (field-independent basis, Debye-Ang):
   XX=            -31.2301   YY=            -32.0000   ZZ=            -38.7318
   XY=              0.2183   XZ=              0.1905   YZ=              0.5069

 Normal termination of Gaussian 16 at Fri Nov 10 20:35:10 2023.
