 Gaussian 16, Revision B.01,
 Gaussian 16:  EM64L-G16RevB.01 20-Dec-2017

 ---------------------------------
 # TD=(NStates=1) B3LYP/6-31G(d,p)
 ---------------------------------

 -------
 EMISPCT
 -------
 Symbolic Z-matrix:
 Charge =  0 Multiplicity = 1

                         Standard orientation:
 ---------------------------------------------------------------------
 Center     Atomic      Atomic             Coordinates (Angstroms)
 Number     Number       Type             X           Y           Z
 ---------------------------------------------------------------------
      1          6           0        0.443943    1.361141    0.053423
      2          6           0        1.427728    0.291259   -0.111211
      3          6           0        0.948034   -1.058228    0.055546
      4          6           0       -0.437720   -1.320974    0.080183
      5          6           0       -1.422521   -0.305990   -0.062925
      6          6           0       -0.921449    1.040741   -0.037633
      7          1           0        0.648505    2.353372    0.278803
      8          1           0       -1.652563    1.834197    0.128470
      9          1           0       -2.595153   -0.491945   -0.156287
     10          1           0       -0.783670   -2.304048    0.045042
     11          1           0        1.633497   -1.828402   -0.028515
     12          1           0        2.521290    0.389126   -0.131813
 ---------------------------------------------------------------------

 SCF Done:  E(RB3LYP) =  -232.225980507     A.U. after   13 cycles

 Excitation energies and oscillator strengths:

 Excited State   1:      Singlet-A      5.1205 eV  242.13 nm  f=0.0012  <S**2>=0.000
      20 -> 22         0.53187
      21 -> 23        -0.46285
 This state for optimization and/or second-order correction.
 Total Energy, E(TD-HF/TD-DFT) =  -232.037804815
 Copying the excited state density for this state as the 1-particle RhoCI density.

 The electronic state is 1-A.
 Alpha  occ. eigenvalues --  -10.20518 -10.20242 -10.19393 -10.19176 -10.19021
 Alpha  occ. eigenvalues --  -10.18894  -0.83304  -0.73854  -0.72926  -0.60061
 Alpha  occ. eigenvalues --   -0.59080  -0.51173  -0.46632  -0.43066  -0.41940
 Alpha  occ. eigenvalues --   -0.40803  -0.35263  -0.34210  -0.33365  -0.24392
 Alpha  occ. eigenvalues --   -0.23919
 Alpha virt. eigenvalues --   -0.01384  -0.00072   0.08873   0.13238   0.13696
 Alpha virt. eigenvalues --    0.15063   0.16938   0.18748   0.19232   0.27838
 Alpha virt. eigenvalues --    0.28799   0.29529   0.31525   0.47092   0.49364

 Mulliken charges:
               1
     1  C   -0.079196
     2  C   -0.102501
     3  C   -0.081098
     4  C   -0.083093
     5  C   -0.088598
     6  C   -0.093119
     7  H    0.090061
     8  H    0.083421
     9  H    0.091022
    10  H    0.083144
    11  H    0.089114
    12  H    0.090842
 Sum of Mulliken charges =  -0.00000

 Dipole moment (field-independent basis, Debye):
    X=              0.0128    Y=             -0.0490    Z=              0.0982  Tot=              0.1105
 Quadrupole moment (field-independent basis, Debye-Ang):
   XX=            -31.0824   YY=            -31.7405   ZZ=            -38.7830
   XY=             -0.3040   XZ=             -0.0362   YZ=              0.7578

 Normal termination of Gaussian 16 at Fri Nov 10 20:04:03 2023.
