 Gaussian 16, Revision B.01,
 Gaussian 16:  EM64L-G16RevB.01 20-Dec-2017

 ---------------------------------
 # TD=(NStates=1) B3LYP/6-31G(d,p)
 ---------------------------------

 -------
 EMISPCT
 -------
 Symbolic Z-matrix:
 Charge =  0 Multiplicity = 1

                         Standard orientation:
 ---------------------------------------------------------------------
 Center     Atomic      Atomic             Coordinates (Angstroms)
 Number     Number       Type             X           Y           Z
 ---------------------------------------------------------------------
      1          6           0        1.377300    0.346486    0.033170
      2          6           0        1.025623   -1.032116   -0.045204
      3          6           0       -0.395600   -1.314961    0.058141
      4          6           0       -1.371680   -0.377479   -0.063353
      5          6           0       -0.988405    0.948443    0.002705
      6          6           0        0.371653    1.375524   -0.023505
      7          1           0        2.420347    0.748549   -0.056671
      8          1           0        0.681090    2.324346    0.187877
      9          1           0       -1.760731    1.835998   -0.070976
     10          1           0       -2.476002   -0.474340    0.151216
     11          1           0       -0.667716   -2.301449    0.034216
     12          1           0        1.689665   -1.808494   -0.017390
 ---------------------------------------------------------------------

 SCF Done:  E(RB3LYP) =  -232.218912787     A.U. after   13 cycles

 Excitation energies and oscillator strengths:

 Excited State   1:      Singlet-A      5.3018 eV  233.85 nm  f=0.0002  <S**2>=0.000
      20 -> 22        -0.49041
      21 -> 23         0.50876
 This state for optimization and/or second-order correction.
 Total Energy, E(TD-HF/TD-DFT) =  -232.024073487
 Copying the excited state density for this state as the 1-particle RhoCI density.

 The electronic state is 1-A.
 Alpha  occ. eigenvalues --  -10.19921 -10.19736 -10.19348 -10.18937 -10.18673
 Alpha  occ. eigenvalues --  -10.18614  -0.84226  -0.74285  -0.73483  -0.60626
 Alpha  occ. eigenvalues --   -0.59172  -0.51749  -0.46410  -0.43432  -0.41861
 Alpha  occ. eigenvalues --   -0.41279  -0.35704  -0.34085  -0.32708  -0.25091
 Alpha  occ. eigenvalues --   -0.24139
 Alpha virt. eigenvalues --   -0.00912  -0.00189   0.08653   0.13425   0.14430
 Alpha virt. eigenvalues --    0.15139   0.17119   0.18722   0.19131   0.27840
 Alpha virt. eigenvalues --    0.28779   0.31292   0.32352   0.45206   0.47015

 Mulliken charges:
               1
     1  C   -0.099277
     2  C   -0.077124
     3  C   -0.093287
     4  C   -0.072715
     5  C   -0.091336
     6  C   -0.075022
     7  H    0.082164
     8  H    0.089604
     9  H    0.072080
    10  H    0.092689
    11  H    0.082182
    12  H    0.090042
 Sum of Mulliken charges =  -0.00000

 Dipole moment (field-independent basis, Debye):
    X=              0.0739    Y=             -0.0330    Z=              0.1683  Tot=              0.1868
 Quadrupole moment (field-independent basis, Debye-Ang):
   XX=            -31.7814   YY=            -31.4880   ZZ=            -38.6042
   XY=             -0.0135   XZ=             -0.2796   YZ=              0.1727

 Normal termination of Gaussian 16 at Fri Nov 10 20:44:19 2023.
