 Gaussian 16, Revision B.01,
 Gaussian 16:  EM64L-G16RevB.01 20-Dec-2017

 ---------------------------------
 # TD=(NStates=1) B3LYP/6-31G(d,p)
 ---------------------------------

 -------
 EMISPCT
 -------
 Symbolic Z-matrix:
 Charge =  0 Multiplicity = 1

                         Standard orientation:
 ---------------------------------------------------------------------
 Center     Atomic      Atomic             Coordinates (Angstroms)
 Number     Number       Type             X           Y           Z
 ---------------------------------------------------------------------
      1          6           0        1.255857    0.650331   -0.041271
      2          6           0        1.248858   -0.691824   -0.002730
      3          6           0        0.015995   -1.413904   -0.065435
      4          6           0       -1.250092   -0.677512    0.016025
      5          6           0       -1.272133    0.717823    0.037984
      6          6           0        0.035875    1.418425   -0.051447
      7          1           0        2.173048    1.198047    0.136356
      8          1           0        0.156604    2.455006    0.158201
      9          1           0       -2.276143    1.290252    0.037835
     10          1           0       -2.181802   -1.243358   -0.093140
     11          1           0       -0.157405   -2.451236    0.230327
     12          1           0        2.079538   -1.268748    0.171669
 ---------------------------------------------------------------------

 SCF Done:  E(RB3LYP) =  -232.223119885     A.U. after   14 cycles

 Excitation energies and oscillator strengths:

 Excited State   1:      Singlet-A      5.1560 eV  240.47 nm  f=0.0006  <S**2>=0.000
      20 -> 22         0.51652
      21 -> 23        -0.47944
 This state for optimization and/or second-order correction.
 Total Energy, E(TD-HF/TD-DFT) =  -232.033640488
 Copying the excited state density for this state as the 1-particle RhoCI density.

 The electronic state is 1-A.
 Alpha  occ. eigenvalues --  -10.20605 -10.19984 -10.19613 -10.19500 -10.18984
 Alpha  occ. eigenvalues --  -10.18526  -0.83571  -0.74485  -0.72478  -0.60402
 Alpha  occ. eigenvalues --   -0.58746  -0.51299  -0.46399  -0.43428  -0.42149
 Alpha  occ. eigenvalues --   -0.40164  -0.35846  -0.34057  -0.32887  -0.25364
 Alpha  occ. eigenvalues --   -0.23379
 Alpha virt. eigenvalues --   -0.02117   0.00412   0.09206   0.13331   0.13543
 Alpha virt. eigenvalues --    0.15054   0.17005   0.18080   0.19417   0.26599
 Alpha virt. eigenvalues --    0.28651   0.30263   0.31585   0.47175   0.50350

 Mulliken charges:
               1
     1  C   -0.081050
     2  C   -0.067868
     3  C   -0.103391
     4  C   -0.095112
     5  C   -0.086591
     6  C   -0.103816
     7  H    0.087818
     8  H    0.091367
     9  H    0.089503
    10  H    0.088834
    11  H    0.092958
    12  H    0.087349
 Sum of Mulliken charges =  -0.00000

 Dipole moment (field-independent basis, Debye):
    X=              0.0494    Y=              0.0087    Z=              0.4154  Tot=              0.4185
 Quadrupole moment (field-independent basis, Debye-Ang):
   XX=            -31.3167   YY=            -31.8415   ZZ=            -38.7136
   XY=              0.3111   XZ=              0.6298   YZ=             -0.0740

 Normal termination of Gaussian 16 at Fri Nov 10 21:54:22 2023.
