 Gaussian 16, Revision B.01,
 Gaussian 16:  EM64L-G16RevB.01 20-Dec-2017

 ---------------------------------
 # TD=(NStates=1) B3LYP/6-31G(d,p)
 ---------------------------------

 -------
 EMISPCT
 -------
 Symbolic Z-matrix:
 Charge =  0 Multiplicity = 1

                         Standard orientation:
 ---------------------------------------------------------------------
 Center     Atomic      Atomic             Coordinates (Angstroms)
 Number     Number       Type             X           Y           Z
 ---------------------------------------------------------------------
      1          6           0       -0.918960    1.080856   -0.008471
      2          6           0        0.520461    1.371241    0.000301
      3          6           0        1.404454    0.234095   -0.011757
      4          6           0        0.899529   -1.110370    0.036105
      5          6           0       -0.488028   -1.346526   -0.004482
      6          6           0       -1.429446   -0.166767   -0.045617
      7          1           0       -1.506464    1.827912    0.072303
      8          1           0       -2.587784   -0.674378   -0.140957
      9          1           0       -0.851365   -2.304868    0.349526
     10          1           0        1.630816   -1.909757   -0.141118
     11          1           0        2.630558    0.242348   -0.172947
     12          1           0        0.756176    2.443562    0.236724
 ---------------------------------------------------------------------

 SCF Done:  E(RB3LYP) =  -232.176697182     A.U. after   13 cycles

 Excitation energies and oscillator strengths:

 Excited State   1:      Singlet-A      5.0804 eV  244.04 nm  f=0.0017  <S**2>=0.000
      20 -> 22         0.54151
      21 -> 23        -0.45369
 This state for optimization and/or second-order correction.
 Total Energy, E(TD-HF/TD-DFT) =  -231.989995600
 Copying the excited state density for this state as the 1-particle RhoCI density.

 The electronic state is 1-A.
 Alpha  occ. eigenvalues --  -10.21423 -10.21320 -10.21017 -10.19846 -10.19574
 Alpha  occ. eigenvalues --  -10.18484  -0.83280  -0.74519  -0.72150  -0.60161
 Alpha  occ. eigenvalues --   -0.58749  -0.50177  -0.46290  -0.43393  -0.41547
 Alpha  occ. eigenvalues --   -0.39542  -0.36493  -0.33221  -0.31780  -0.25183
 Alpha  occ. eigenvalues --   -0.23688
 Alpha virt. eigenvalues --   -0.02420   0.00101   0.07138   0.09381   0.12329
 Alpha virt. eigenvalues --    0.14054   0.16310   0.17560   0.19308   0.25458
 Alpha virt. eigenvalues --    0.27887   0.29625   0.32858   0.46073   0.49104

 Mulliken charges:
               1
     1  C   -0.073320
     2  C   -0.100783
     3  C   -0.093416
     4  C   -0.076556
     5  C   -0.107964
     6  C   -0.075110
     7  H    0.078376
     8  H    0.082886
     9  H    0.096556
    10  H    0.092676
    11  H    0.076206
    12  H    0.100449
 Sum of Mulliken charges =  -0.00000

 Dipole moment (field-independent basis, Debye):
    X=             -0.0815    Y=             -0.0070    Z=              0.1628  Tot=              0.1821
 Quadrupole moment (field-independent basis, Debye-Ang):
   XX=            -32.2705   YY=            -31.3032   ZZ=            -38.9448
   XY=             -0.2488   XZ=             -0.4733   YZ=              0.2447

 Normal termination of Gaussian 16 at Fri Nov 10 22:05:18 2023.
