 Gaussian 16, Revision B.01,
 Gaussian 16:  EM64L-G16RevB.01 20-Dec-2017

 ---------------------------------
 # TD=(NStates=1) B3LYP/6-31G(d,p)
 ---------------------------------

 -------
 EMISPCT
 -------
 Symbolic Z-matrix:
 Charge =  0 Multiplicity = 1

                         Standard orientation:
 ---------------------------------------------------------------------
 Center     Atomic      Atomic             Coordinates (Angstroms)
 Number     Number       Type             X           Y           Z
 ---------------------------------------------------------------------
      1          6           0       -0.979970   -0.984752    0.113008
      2          6           0       -1.420766    0.349354   -0.081663
      3          6           0       -0.407505    1.378745    0.011384
      4          6           0        1.020816    0.971851    0.048148
      5          6           0        1.438650   -0.355622   -0.043777
      6          6           0        0.376162   -1.339388   -0.075785
      7          1           0       -1.847439   -1.771116    0.139360
      8          1           0        0.544638   -2.331145   -0.091215
      9          1           0        2.596820   -0.603042    0.117359
     10          1           0        1.887585    1.746366    0.131722
     11          1           0       -0.700237    2.299884   -0.168140
     12          1           0       -2.645690    0.537921    0.043019
 ---------------------------------------------------------------------

 SCF Done:  E(RB3LYP) =  -232.190846532     A.U. after   13 cycles

 Excitation energies and oscillator strengths:

 Excited State   1:      Singlet-A      5.0836 eV  243.89 nm  f=0.0024  <S**2>=0.000
      20 -> 22         0.45013
      20 -> 23        -0.17546
      21 -> 22         0.26395
      21 -> 23         0.44339
 This state for optimization and/or second-order correction.
 Total Energy, E(TD-HF/TD-DFT) =  -232.004026167
 Copying the excited state density for this state as the 1-particle RhoCI density.

 The electronic state is 1-A.
 Alpha  occ. eigenvalues --  -10.21155 -10.20912 -10.20758 -10.20068 -10.19667
 Alpha  occ. eigenvalues --  -10.19244  -0.83312  -0.73529  -0.73045  -0.60932
 Alpha  occ. eigenvalues --   -0.57330  -0.50484  -0.46182  -0.43132  -0.41008
 Alpha  occ. eigenvalues --   -0.39961  -0.35639  -0.33562  -0.33042  -0.25000
 Alpha  occ. eigenvalues --   -0.23838
 Alpha virt. eigenvalues --   -0.01809  -0.00459   0.06960   0.10094   0.13022
 Alpha virt. eigenvalues --    0.14208   0.16166   0.17323   0.18767   0.27213
 Alpha virt. eigenvalues --    0.28332   0.29868   0.30707   0.46453   0.47501

 Mulliken charges:
               1
     1  C   -0.081777
     2  C   -0.094544
     3  C   -0.081236
     4  C   -0.094502
     5  C   -0.081486
     6  C   -0.083191
     7  H    0.080926
     8  H    0.086063
     9  H    0.096038
    10  H    0.083312
    11  H    0.089657
    12  H    0.080740
 Sum of Mulliken charges =  -0.00000

 Dipole moment (field-independent basis, Debye):
    X=              0.0609    Y=             -0.0809    Z=              0.0732  Tot=              0.1249
 Quadrupole moment (field-independent basis, Debye-Ang):
   XX=            -30.9460   YY=            -32.2929   ZZ=            -39.1243
   XY=              0.0394   XZ=              0.2274   YZ=             -0.1953

 Normal termination of Gaussian 16 at Fri Nov 10 22:34:41 2023.
