 Gaussian 16, Revision B.01,
 Gaussian 16:  EM64L-G16RevB.01 20-Dec-2017

 ---------------------------------
 # TD=(NStates=1) B3LYP/6-31G(d,p)
 ---------------------------------

 -------
 EMISPCT
 -------
 Symbolic Z-matrix:
 Charge =  0 Multiplicity = 1

                         Standard orientation:
 ---------------------------------------------------------------------
 Center     Atomic      Atomic             Coordinates (Angstroms)
 Number     Number       Type             X           Y           Z
 ---------------------------------------------------------------------
      1          6           0       -1.321517   -0.552123   -0.130224
      2          6           0       -0.189127   -1.349790    0.101330
      3          6           0        1.156925   -0.896665   -0.057683
      4          6           0        1.336720    0.517100   -0.000170
      5          6           0        0.203835    1.375224    0.070058
      6          6           0       -1.161074    0.815270   -0.006084
      7          1           0       -2.329274   -0.827355    0.140510
      8          1           0       -2.062967    1.507121   -0.184452
      9          1           0        0.259729    2.565298    0.224335
     10          1           0        2.254085    1.100315   -0.168785
     11          1           0        2.114745   -1.310894   -0.130124
     12          1           0       -0.390882   -2.488582    0.255154
 ---------------------------------------------------------------------

 SCF Done:  E(RB3LYP) =  -232.203443814     A.U. after   12 cycles

 Excitation energies and oscillator strengths:

 Excited State   1:      Singlet-A      5.1196 eV  242.18 nm  f=0.0023  <S**2>=0.000
      20 -> 22         0.45901
      21 -> 22         0.10311
      21 -> 23         0.52216
 This state for optimization and/or second-order correction.
 Total Energy, E(TD-HF/TD-DFT) =  -232.015302582
 Copying the excited state density for this state as the 1-particle RhoCI density.

 The electronic state is 1-A.
 Alpha  occ. eigenvalues --  -10.20793 -10.20612 -10.20113 -10.19871 -10.19787
 Alpha  occ. eigenvalues --  -10.18931  -0.83924  -0.74765  -0.72220  -0.60091
 Alpha  occ. eigenvalues --   -0.58711  -0.50396  -0.45923  -0.43862  -0.41403
 Alpha  occ. eigenvalues --   -0.39596  -0.35825  -0.33696  -0.32337  -0.25261
 Alpha  occ. eigenvalues --   -0.23690
 Alpha virt. eigenvalues --   -0.01396  -0.00700   0.07878   0.12318   0.13048
 Alpha virt. eigenvalues --    0.14119   0.15176   0.16987   0.18206   0.27706
 Alpha virt. eigenvalues --    0.28153   0.30113   0.31257   0.44579   0.47818

 Mulliken charges:
               1
     1  C   -0.077647
     2  C   -0.107639
     3  C   -0.072440
     4  C   -0.099384
     5  C   -0.085986
     6  C   -0.095719
     7  H    0.097800
     8  H    0.087111
     9  H    0.077718
    10  H    0.095864
    11  H    0.100805
    12  H    0.079517
 Sum of Mulliken charges =  -0.00000

 Dipole moment (field-independent basis, Debye):
    X=              0.0960    Y=              0.1607    Z=              0.0677  Tot=              0.1991
 Quadrupole moment (field-independent basis, Debye-Ang):
   XX=            -30.9601   YY=            -32.7773   ZZ=            -38.8850
   XY=             -0.0947   XZ=             -0.6343   YZ=             -0.3809

 Normal termination of Gaussian 16 at Fri Nov 10 20:11:47 2023.
