 Gaussian 16, Revision B.01,
 Gaussian 16:  EM64L-G16RevB.01 20-Dec-2017

 ---------------------------------
 # TD=(NStates=1) B3LYP/6-31G(d,p)
 ---------------------------------

 -------
 EMISPCT
 -------
 Symbolic Z-matrix:
 Charge =  0 Multiplicity = 1

                         Standard orientation:
 ---------------------------------------------------------------------
 Center     Atomic      Atomic             Coordinates (Angstroms)
 Number     Number       Type             X           Y           Z
 ---------------------------------------------------------------------
      1          6           0       -0.673395   -1.275132    0.028982
      2          6           0       -1.452138   -0.061097   -0.053429
      3          6           0       -0.737697    1.197621    0.030116
      4          6           0        0.641019    1.229068   -0.015155
      5          6           0        1.506158    0.052562   -0.027311
      6          6           0        0.699238   -1.161064    0.007906
      7          1           0       -1.112722   -2.075201   -0.030276
      8          1           0        1.297075   -1.984804    0.141761
      9          1           0        2.631827   -0.111220   -0.164960
     10          1           0        0.958694    2.218518    0.296535
     11          1           0       -1.155249    2.132562   -0.136778
     12          1           0       -2.518739   -0.071610    0.067063
 ---------------------------------------------------------------------

 SCF Done:  E(RB3LYP) =  -232.186475828     A.U. after   14 cycles

 Excitation energies and oscillator strengths:

 Excited State   1:      Singlet-A      5.0711 eV  244.49 nm  f=0.0039  <S**2>=0.000
      20 -> 22         0.55597
      21 -> 23         0.42045
 This state for optimization and/or second-order correction.
 Total Energy, E(TD-HF/TD-DFT) =  -232.000115389
 Copying the excited state density for this state as the 1-particle RhoCI density.

 The electronic state is 1-A.
 Alpha  occ. eigenvalues --  -10.20852 -10.19715 -10.19278 -10.18465 -10.18442
 Alpha  occ. eigenvalues --  -10.17653  -0.83598  -0.74932  -0.72895  -0.61147
 Alpha  occ. eigenvalues --   -0.59281  -0.52253  -0.47368  -0.42971  -0.42474
 Alpha  occ. eigenvalues --   -0.40971  -0.35330  -0.34813  -0.32576  -0.24579
 Alpha  occ. eigenvalues --   -0.23683
 Alpha virt. eigenvalues --   -0.02003   0.00424   0.09284   0.13413   0.14500
 Alpha virt. eigenvalues --    0.15575   0.18052   0.19245   0.20042   0.26455
 Alpha virt. eigenvalues --    0.27907   0.30338   0.32543   0.46080   0.46565

 Mulliken charges:
               1
     1  C   -0.025779
     2  C   -0.108625
     3  C   -0.080640
     4  C   -0.098463
     5  C   -0.100579
     6  C   -0.088349
     7  H    0.060505
     8  H    0.075871
     9  H    0.104286
    10  H    0.082843
    11  H    0.090432
    12  H    0.088498
 Sum of Mulliken charges =  -0.00000

 Dipole moment (field-independent basis, Debye):
    X=             -0.0184    Y=             -0.1665    Z=              0.0750  Tot=              0.1836
 Quadrupole moment (field-independent basis, Debye-Ang):
   XX=            -31.1272   YY=            -31.7315   ZZ=            -38.4715
   XY=             -0.4371   XZ=             -0.0098   YZ=              0.1034

 Normal termination of Gaussian 16 at Fri Nov 10 21:55:05 2023.
