 Gaussian 16, Revision B.01,
 Gaussian 16:  EM64L-G16RevB.01 20-Dec-2017

 ---------------------------------
 # TD=(NStates=1) B3LYP/6-31G(d,p)
 ---------------------------------

 -------
 EMISPCT
 -------
 Symbolic Z-matrix:
 Charge =  0 Multiplicity = 1

                         Standard orientation:
 ---------------------------------------------------------------------
 Center     Atomic      Atomic             Coordinates (Angstroms)
 Number     Number       Type             X           Y           Z
 ---------------------------------------------------------------------
      1          6           0        0.246121    1.353120   -0.067708
      2          6           0       -1.211480    0.952867   -0.023316
      3          6           0       -1.369057   -0.522226    0.112231
      4          6           0       -0.208707   -1.474440   -0.080274
      5          6           0        1.173686   -0.912862    0.020836
      6          6           0        1.364213    0.510017    0.014482
      7          1           0        0.509107    2.441348   -0.020631
      8          1           0        2.311262    1.161392    0.308818
      9          1           0        1.925302   -1.443169   -0.120957
     10          1           0       -0.446480   -2.407709   -0.012028
     11          1           0       -2.333120   -0.973795    0.034401
     12          1           0       -1.934727    1.783083   -0.047107
 ---------------------------------------------------------------------

 SCF Done:  E(RB3LYP) =  -232.160618363     A.U. after   13 cycles

 Excitation energies and oscillator strengths:

 Excited State   1:      Singlet-A      4.7504 eV  261.00 nm  f=0.0015  <S**2>=0.000
      20 -> 22         0.45985
      20 -> 23         0.19492
      21 -> 22         0.25628
      21 -> 23        -0.42963
 This state for optimization and/or second-order correction.
 Total Energy, E(TD-HF/TD-DFT) =  -231.986045599
 Copying the excited state density for this state as the 1-particle RhoCI density.

 The electronic state is 1-A.
 Alpha  occ. eigenvalues --  -10.21585 -10.21036 -10.20344 -10.20123 -10.20009
 Alpha  occ. eigenvalues --  -10.19401  -0.81705  -0.72975  -0.72640  -0.61488
 Alpha  occ. eigenvalues --   -0.58465  -0.50795  -0.48024  -0.42330  -0.41809
 Alpha  occ. eigenvalues --   -0.40180  -0.35063  -0.33638  -0.32672  -0.24145
 Alpha  occ. eigenvalues --   -0.23464
 Alpha virt. eigenvalues --   -0.02383  -0.01283   0.08357   0.11570   0.13264
 Alpha virt. eigenvalues --    0.15135   0.17443   0.18145   0.18652   0.24956
 Alpha virt. eigenvalues --    0.27104   0.28049   0.29348   0.42947   0.45313

 Mulliken charges:
               1
     1  C   -0.085437
     2  C   -0.091373
     3  C   -0.115311
     4  C   -0.080727
     5  C   -0.072108
     6  C   -0.088708
     7  H    0.076069
     8  H    0.092316
     9  H    0.078940
    10  H    0.088178
    11  H    0.091446
    12  H    0.106715
 Sum of Mulliken charges =  -0.00000

 Dipole moment (field-independent basis, Debye):
    X=             -0.0468    Y=              0.0458    Z=              0.0841  Tot=              0.1066
 Quadrupole moment (field-independent basis, Debye-Ang):
   XX=            -31.5795   YY=            -30.8131   ZZ=            -39.1539
   XY=              0.1196   XZ=              0.3857   YZ=              0.3843

 Normal termination of Gaussian 16 at Fri Nov 10 22:51:41 2023.
