 Gaussian 16, Revision B.01,
 Gaussian 16:  EM64L-G16RevB.01 20-Dec-2017

 ---------------------------------
 # TD=(NStates=1) B3LYP/6-31G(d,p)
 ---------------------------------

 -------
 EMISPCT
 -------
 Symbolic Z-matrix:
 Charge =  0 Multiplicity = 1

                         Standard orientation:
 ---------------------------------------------------------------------
 Center     Atomic      Atomic             Coordinates (Angstroms)
 Number     Number       Type             X           Y           Z
 ---------------------------------------------------------------------
      1          6           0       -1.088506    0.866534   -0.040995
      2          6           0        0.210939    1.336919    0.010674
      3          6           0        1.401248    0.524535   -0.030466
      4          6           0        1.132214   -0.921148   -0.070745
      5          6           0       -0.285768   -1.334730   -0.000482
      6          6           0       -1.341603   -0.475517    0.001042
      7          1           0       -2.009607    1.552365   -0.105980
      8          1           0       -2.375900   -0.780179    0.144027
      9          1           0       -0.463717   -2.291323    0.094949
     10          1           0        1.812236   -1.692869    0.321287
     11          1           0        2.456390    0.804352   -0.039921
     12          1           0        0.409456    2.428094    0.371473
 ---------------------------------------------------------------------

 SCF Done:  E(RB3LYP) =  -232.206874640     A.U. after   14 cycles

 Excitation energies and oscillator strengths:

 Excited State   1:      Singlet-A      5.0775 eV  244.18 nm  f=0.0054  <S**2>=0.000
      20 -> 22        -0.35636
      20 -> 23         0.26417
      21 -> 22         0.40762
      21 -> 23         0.36924
 This state for optimization and/or second-order correction.
 Total Energy, E(TD-HF/TD-DFT) =  -232.020280220
 Copying the excited state density for this state as the 1-particle RhoCI density.

 The electronic state is 1-A.
 Alpha  occ. eigenvalues --  -10.20674 -10.20180 -10.20133 -10.19266 -10.18316
 Alpha  occ. eigenvalues --  -10.17820  -0.84222  -0.74113  -0.73171  -0.59964
 Alpha  occ. eigenvalues --   -0.59358  -0.51349  -0.46451  -0.43722  -0.41746
 Alpha  occ. eigenvalues --   -0.40124  -0.35618  -0.34758  -0.32593  -0.24825
 Alpha  occ. eigenvalues --   -0.23598
 Alpha virt. eigenvalues --   -0.01462  -0.00211   0.07955   0.13381   0.14394
 Alpha virt. eigenvalues --    0.14672   0.16223   0.17769   0.20127   0.27129
 Alpha virt. eigenvalues --    0.28792   0.29886   0.33143   0.47069   0.49623

 Mulliken charges:
               1
     1  C   -0.081728
     2  C   -0.093340
     3  C   -0.100460
     4  C   -0.111998
     5  C   -0.081356
     6  C   -0.058032
     7  H    0.086245
     8  H    0.087077
     9  H    0.072420
    10  H    0.096875
    11  H    0.103779
    12  H    0.080518
 Sum of Mulliken charges =  -0.00000

 Dipole moment (field-independent basis, Debye):
    X=             -0.0968    Y=             -0.1185    Z=              0.4879  Tot=              0.5113
 Quadrupole moment (field-independent basis, Debye-Ang):
   XX=            -30.8524   YY=            -32.6538   ZZ=            -38.5185
   XY=              0.0504   XZ=              0.4138   YZ=             -0.2471

 Normal termination of Gaussian 16 at Fri Nov 10 21:06:46 2023.
