 Gaussian 16, Revision B.01,
 Gaussian 16:  EM64L-G16RevB.01 20-Dec-2017

 ---------------------------------
 # TD=(NStates=1) B3LYP/6-31G(d,p)
 ---------------------------------

 -------
 EMISPCT
 -------
 Symbolic Z-matrix:
 Charge =  0 Multiplicity = 1

                         Standard orientation:
 ---------------------------------------------------------------------
 Center     Atomic      Atomic             Coordinates (Angstroms)
 Number     Number       Type             X           Y           Z
 ---------------------------------------------------------------------
      1          6           0        0.975194   -1.127475   -0.021627
      2          6           0       -0.499851   -1.341375    0.135006
      3          6           0       -1.464232   -0.241287   -0.042726
      4          6           0       -0.927911    1.090679    0.035128
      5          6           0        0.451023    1.373755    0.031839
      6          6           0        1.474446    0.246414   -0.053387
      7          1           0        1.659642   -2.004599   -0.097578
      8          1           0        2.678190    0.492700    0.031292
      9          1           0        0.848119    2.405086    0.009435
     10          1           0       -1.689326    1.874554   -0.111999
     11          1           0       -2.477632   -0.564885   -0.183621
     12          1           0       -1.071005   -2.207121   -0.152922
 ---------------------------------------------------------------------

 SCF Done:  E(RB3LYP) =  -232.195598129     A.U. after   13 cycles

 Excitation energies and oscillator strengths:

 Excited State   1:      Singlet-A      4.8326 eV  256.56 nm  f=0.0003  <S**2>=0.000
      20 -> 22         0.51974
      21 -> 23         0.47811
 This state for optimization and/or second-order correction.
 Total Energy, E(TD-HF/TD-DFT) =  -232.018003617
 Copying the excited state density for this state as the 1-particle RhoCI density.

 The electronic state is 1-A.
 Alpha  occ. eigenvalues --  -10.22490 -10.21622 -10.21081 -10.20198 -10.20165
 Alpha  occ. eigenvalues --  -10.20085  -0.81832  -0.72696  -0.72301  -0.59356
 Alpha  occ. eigenvalues --   -0.58372  -0.50063  -0.46192  -0.43144  -0.41280
 Alpha  occ. eigenvalues --   -0.39410  -0.35288  -0.33733  -0.32047  -0.24412
 Alpha  occ. eigenvalues --   -0.23646
 Alpha virt. eigenvalues --   -0.02382  -0.01142   0.07755   0.11627   0.12466
 Alpha virt. eigenvalues --    0.14162   0.14791   0.15792   0.19270   0.24945
 Alpha virt. eigenvalues --    0.26161   0.28179   0.30366   0.44445   0.47638

 Mulliken charges:
               1
     1  C   -0.099814
     2  C   -0.097090
     3  C   -0.100247
     4  C   -0.076927
     5  C   -0.095507
     6  C   -0.097216
     7  H    0.100482
     8  H    0.090292
     9  H    0.098219
    10  H    0.086093
    11  H    0.102521
    12  H    0.089193
 Sum of Mulliken charges =  -0.00000

 Dipole moment (field-independent basis, Debye):
    X=             -0.1112    Y=              0.0668    Z=             -0.3350  Tot=              0.3592
 Quadrupole moment (field-independent basis, Debye-Ang):
   XX=            -30.6245   YY=            -32.1932   ZZ=            -39.4456
   XY=              0.4628   XZ=              0.7021   YZ=              0.4481

 Normal termination of Gaussian 16 at Fri Nov 10 21:46:35 2023.
