 Gaussian 16, Revision B.01,
 Gaussian 16:  EM64L-G16RevB.01 20-Dec-2017

 ---------------------------------
 # TD=(NStates=1) B3LYP/6-31G(d,p)
 ---------------------------------

 -------
 EMISPCT
 -------
 Symbolic Z-matrix:
 Charge =  0 Multiplicity = 1

                         Standard orientation:
 ---------------------------------------------------------------------
 Center     Atomic      Atomic             Coordinates (Angstroms)
 Number     Number       Type             X           Y           Z
 ---------------------------------------------------------------------
      1          6           0        0.197820    1.384602    0.010408
      2          6           0       -1.140219    0.874218   -0.059774
      3          6           0       -1.328783   -0.527521    0.050476
      4          6           0       -0.216887   -1.365384    0.041747
      5          6           0        1.121125   -0.890919   -0.037481
      6          6           0        1.358723    0.490097   -0.024479
      7          1           0        0.405090    2.363661    0.136210
      8          1           0        2.343048    1.029846    0.204212
      9          1           0        2.096716   -1.513133   -0.137088
     10          1           0       -0.456576   -2.267501    0.030974
     11          1           0       -2.338067   -0.927958   -0.046262
     12          1           0       -2.000890    1.524523   -0.073423
 ---------------------------------------------------------------------

 SCF Done:  E(RB3LYP) =  -232.209583817     A.U. after   13 cycles

 Excitation energies and oscillator strengths:

 Excited State   1:      Singlet-A      5.2228 eV  237.39 nm  f=0.0006  <S**2>=0.000
      20 -> 22         0.47544
      21 -> 23         0.51722
 This state for optimization and/or second-order correction.
 Total Energy, E(TD-HF/TD-DFT) =  -232.017650239
 Copying the excited state density for this state as the 1-particle RhoCI density.

 The electronic state is 1-A.
 Alpha  occ. eigenvalues --  -10.20246 -10.19933 -10.19317 -10.19058 -10.18820
 Alpha  occ. eigenvalues --  -10.17800  -0.83691  -0.74000  -0.73475  -0.61115
 Alpha  occ. eigenvalues --   -0.58776  -0.51529  -0.47011  -0.43844  -0.41455
 Alpha  occ. eigenvalues --   -0.41025  -0.35259  -0.34761  -0.32987  -0.24629
 Alpha  occ. eigenvalues --   -0.23985
 Alpha virt. eigenvalues --   -0.00597  -0.00449   0.09164   0.13517   0.14297
 Alpha virt. eigenvalues --    0.14583   0.17140   0.18988   0.20258   0.28029
 Alpha virt. eigenvalues --    0.29445   0.30544   0.31169   0.47429   0.50906

 Mulliken charges:
               1
     1  C   -0.080249
     2  C   -0.086127
     3  C   -0.095667
     4  C   -0.046580
     5  C   -0.092111
     6  C   -0.097446
     7  H    0.079866
     8  H    0.091662
     9  H    0.087841
    10  H    0.063250
    11  H    0.089611
    12  H    0.085948
 Sum of Mulliken charges =  -0.00000

 Dipole moment (field-independent basis, Debye):
    X=             -0.1012    Y=              0.0449    Z=              0.0787  Tot=              0.1358
 Quadrupole moment (field-independent basis, Debye-Ang):
   XX=            -30.9692   YY=            -31.8294   ZZ=            -38.6376
   XY=              0.5031   XZ=              0.4273   YZ=              0.5265

 Normal termination of Gaussian 16 at Fri Nov 10 20:25:08 2023.
