 Gaussian 16, Revision B.01,
 Gaussian 16:  EM64L-G16RevB.01 20-Dec-2017

 ---------------------------------
 # TD=(NStates=1) B3LYP/6-31G(d,p)
 ---------------------------------

 -------
 EMISPCT
 -------
 Symbolic Z-matrix:
 Charge =  0 Multiplicity = 1

                         Standard orientation:
 ---------------------------------------------------------------------
 Center     Atomic      Atomic             Coordinates (Angstroms)
 Number     Number       Type             X           Y           Z
 ---------------------------------------------------------------------
      1          6           0       -1.387580    0.163137    0.157474
      2          6           0       -0.503813    1.315275   -0.077483
      3          6           0        0.851115    1.148515   -0.177408
      4          6           0        1.455461   -0.230487    0.033027
      5          6           0        0.473143   -1.341003   -0.032316
      6          6           0       -0.917233   -1.079305   -0.037185
      7          1           0       -2.431311    0.367591    0.424161
      8          1           0       -1.617485   -1.838646   -0.546560
      9          1           0        1.085581   -2.431121    0.027613
     10          1           0        2.643242   -0.326123    0.741609
     11          1           0        1.474297    2.060026   -0.043991
     12          1           0       -0.980884    2.311475    0.200516
 ---------------------------------------------------------------------

 SCF Done:  E(RB3LYP) =  -232.141332034     A.U. after   14 cycles

 Excitation energies and oscillator strengths:

 Excited State   1:      Singlet-A      4.5709 eV  271.25 nm  f=0.0058  <S**2>=0.000
      20 -> 22         0.44116
      20 -> 23        -0.15577
      21 -> 22        -0.36956
      21 -> 23        -0.37908
 This state for optimization and/or second-order correction.
 Total Energy, E(TD-HF/TD-DFT) =  -231.973355937
 Copying the excited state density for this state as the 1-particle RhoCI density.

 The electronic state is 1-A.
 Alpha  occ. eigenvalues --  -10.23239 -10.21746 -10.20737 -10.20237 -10.19964
 Alpha  occ. eigenvalues --  -10.19606  -0.83764  -0.74245  -0.71789  -0.58642
 Alpha  occ. eigenvalues --   -0.58024  -0.49662  -0.44406  -0.43481  -0.41501
 Alpha  occ. eigenvalues --   -0.38723  -0.36700  -0.33110  -0.31312  -0.24759
 Alpha  occ. eigenvalues --   -0.23067
 Alpha virt. eigenvalues --   -0.03489  -0.01105   0.04924   0.07824   0.11512
 Alpha virt. eigenvalues --    0.12971   0.14644   0.16302   0.18185   0.24920
 Alpha virt. eigenvalues --    0.27384   0.30269   0.33300   0.46317   0.48212

 Mulliken charges:
               1
     1  C   -0.087074
     2  C   -0.079700
     3  C   -0.101129
     4  C   -0.091888
     5  C   -0.103492
     6  C   -0.082833
     7  H    0.095242
     8  H    0.099469
     9  H    0.086493
    10  H    0.075986
    11  H    0.096249
    12  H    0.092676
 Sum of Mulliken charges =  -0.00000

 Dipole moment (field-independent basis, Debye):
    X=             -0.3047    Y=              0.3109    Z=              0.4374  Tot=              0.6171
 Quadrupole moment (field-independent basis, Debye-Ang):
   XX=            -32.3450   YY=            -32.6371   ZZ=            -38.5835
   XY=             -0.1578   XZ=              1.1720   YZ=              1.0532

 Normal termination of Gaussian 16 at Fri Nov 10 20:17:27 2023.
