 Gaussian 16, Revision B.01,
 Gaussian 16:  EM64L-G16RevB.01 20-Dec-2017

 ---------------------------------
 # TD=(NStates=1) B3LYP/6-31G(d,p)
 ---------------------------------

 -------
 EMISPCT
 -------
 Symbolic Z-matrix:
 Charge =  0 Multiplicity = 1

                         Standard orientation:
 ---------------------------------------------------------------------
 Center     Atomic      Atomic             Coordinates (Angstroms)
 Number     Number       Type             X           Y           Z
 ---------------------------------------------------------------------
      1          6           0        1.360127    0.507833   -0.012068
      2          6           0        1.081073   -0.920004   -0.072666
      3          6           0       -0.253733   -1.404943    0.083200
      4          6           0       -1.371228   -0.498972    0.024679
      5          6           0       -1.087016    0.917392   -0.095386
      6          6           0        0.246868    1.365407    0.052899
      7          1           0        2.445684    0.758544   -0.033200
      8          1           0        0.474072    2.514052    0.258537
      9          1           0       -1.967491    1.555835   -0.021649
     10          1           0       -2.410977   -0.684968   -0.131214
     11          1           0       -0.363212   -2.427907    0.123209
     12          1           0        1.965379   -1.515836   -0.079633
 ---------------------------------------------------------------------

 SCF Done:  E(RB3LYP) =  -232.224955954     A.U. after   12 cycles

 Excitation energies and oscillator strengths:

 Excited State   1:      Singlet-A      5.1266 eV  241.85 nm  f=0.0004  <S**2>=0.000
      20 -> 22         0.50345
      21 -> 22        -0.11548
      21 -> 23         0.47233
 This state for optimization and/or second-order correction.
 Total Energy, E(TD-HF/TD-DFT) =  -232.036558460
 Copying the excited state density for this state as the 1-particle RhoCI density.

 The electronic state is 1-A.
 Alpha  occ. eigenvalues --  -10.20382 -10.19905 -10.19883 -10.19578 -10.19533
 Alpha  occ. eigenvalues --  -10.19482  -0.83190  -0.73416  -0.73206  -0.59980
 Alpha  occ. eigenvalues --   -0.59116  -0.50911  -0.46394  -0.44135  -0.41211
 Alpha  occ. eigenvalues --   -0.40068  -0.35933  -0.34866  -0.31928  -0.24404
 Alpha  occ. eigenvalues --   -0.24099
 Alpha virt. eigenvalues --   -0.01194  -0.00481   0.08601   0.12868   0.13930
 Alpha virt. eigenvalues --    0.14687   0.16496   0.18328   0.18844   0.27081
 Alpha virt. eigenvalues --    0.28207   0.29671   0.31749   0.47197   0.49440

 Mulliken charges:
               1
     1  C   -0.087099
     2  C   -0.088781
     3  C   -0.083814
     4  C   -0.094210
     5  C   -0.092843
     6  C   -0.086038
     7  H    0.095819
     8  H    0.075055
     9  H    0.091325
    10  H    0.096454
    11  H    0.086473
    12  H    0.087658
 Sum of Mulliken charges =  -0.00000

 Dipole moment (field-independent basis, Debye):
    X=              0.0493    Y=             -0.1233    Z=              0.0627  Tot=              0.1469
 Quadrupole moment (field-independent basis, Debye-Ang):
   XX=            -30.3958   YY=            -32.5487   ZZ=            -38.9238
   XY=             -0.4119   XZ=              0.1538   YZ=              0.3347

 Normal termination of Gaussian 16 at Fri Nov 10 19:47:56 2023.
