 Gaussian 16, Revision B.01,
 Gaussian 16:  EM64L-G16RevB.01 20-Dec-2017

 ---------------------------------
 # TD=(NStates=1) B3LYP/6-31G(d,p)
 ---------------------------------

 -------
 EMISPCT
 -------
 Symbolic Z-matrix:
 Charge =  0 Multiplicity = 1

                         Standard orientation:
 ---------------------------------------------------------------------
 Center     Atomic      Atomic             Coordinates (Angstroms)
 Number     Number       Type             X           Y           Z
 ---------------------------------------------------------------------
      1          6           0        1.377688   -0.507490   -0.005970
      2          6           0        0.257172   -1.382563   -0.055233
      3          6           0       -1.112907   -0.913208    0.045508
      4          6           0       -1.361871    0.478348   -0.026721
      5          6           0       -0.292544    1.363647   -0.036815
      6          6           0        1.112928    0.930228    0.056512
      7          1           0        2.471452   -0.830133   -0.090272
      8          1           0        1.840017    1.839586    0.094948
      9          1           0       -0.491455    2.429366   -0.095661
     10          1           0       -2.280659    0.842649    0.111756
     11          1           0       -1.805944   -1.678383    0.004549
     12          1           0        0.383795   -2.416852    0.110994
 ---------------------------------------------------------------------

 SCF Done:  E(RB3LYP) =  -232.220344707     A.U. after   13 cycles

 Excitation energies and oscillator strengths:

 Excited State   1:      Singlet-A      5.1113 eV  242.57 nm  f=0.0009  <S**2>=0.000
      20 -> 22         0.47597
      20 -> 23         0.13717
      21 -> 22        -0.19004
      21 -> 23         0.46708
 This state for optimization and/or second-order correction.
 Total Energy, E(TD-HF/TD-DFT) =  -232.032506912
 Copying the excited state density for this state as the 1-particle RhoCI density.

 The electronic state is 1-A.
 Alpha  occ. eigenvalues --  -10.21020 -10.20880 -10.19327 -10.19306 -10.19129
 Alpha  occ. eigenvalues --  -10.18329  -0.83088  -0.73918  -0.72686  -0.60102
 Alpha  occ. eigenvalues --   -0.59121  -0.51223  -0.46983  -0.43078  -0.42088
 Alpha  occ. eigenvalues --   -0.40104  -0.35078  -0.34541  -0.33215  -0.24694
 Alpha  occ. eigenvalues --   -0.23658
 Alpha virt. eigenvalues --   -0.01355  -0.00275   0.08853   0.13511   0.14115
 Alpha virt. eigenvalues --    0.14800   0.16050   0.18475   0.19530   0.27146
 Alpha virt. eigenvalues --    0.27776   0.29858   0.31286   0.47108   0.49433

 Mulliken charges:
               1
     1  C   -0.098956
     2  C   -0.095313
     3  C   -0.087345
     4  C   -0.062079
     5  C   -0.093156
     6  C   -0.093815
     7  H    0.094249
     8  H    0.092042
     9  H    0.084444
    10  H    0.082838
    11  H    0.088891
    12  H    0.088201
 Sum of Mulliken charges =  -0.00000

 Dipole moment (field-independent basis, Debye):
    X=             -0.1076    Y=              0.0558    Z=              0.0905  Tot=              0.1512
 Quadrupole moment (field-independent basis, Debye-Ang):
   XX=            -31.5951   YY=            -31.0907   ZZ=            -38.9053
   XY=              0.2227   XZ=             -0.2122   YZ=             -0.1455

 Normal termination of Gaussian 16 at Fri Nov 10 20:54:14 2023.
