 Gaussian 16, Revision B.01,
 Gaussian 16:  EM64L-G16RevB.01 20-Dec-2017

 ---------------------------------
 # TD=(NStates=1) B3LYP/6-31G(d,p)
 ---------------------------------

 -------
 EMISPCT
 -------
 Symbolic Z-matrix:
 Charge =  0 Multiplicity = 1

                         Standard orientation:
 ---------------------------------------------------------------------
 Center     Atomic      Atomic             Coordinates (Angstroms)
 Number     Number       Type             X           Y           Z
 ---------------------------------------------------------------------
      1          6           0        1.493742   -0.030087   -0.056731
      2          6           0        0.762649    1.172938   -0.016881
      3          6           0       -0.695096    1.275874    0.093476
      4          6           0       -1.480867    0.061314    0.025826
      5          6           0       -0.781026   -1.168042   -0.110087
      6          6           0        0.704648   -1.280785    0.125079
      7          1           0        2.593875   -0.101452   -0.152741
      8          1           0        1.136850   -2.237123    0.220060
      9          1           0       -1.454479   -2.029474   -0.231662
     10          1           0       -2.484384   -0.142216   -0.004460
     11          1           0       -1.211815    2.232965   -0.088539
     12          1           0        1.395655    2.090023   -0.106756
 ---------------------------------------------------------------------

 SCF Done:  E(RB3LYP) =  -232.209003549     A.U. after   13 cycles

 Excitation energies and oscillator strengths:

 Excited State   1:      Singlet-A      4.8432 eV  256.00 nm  f=0.0035  <S**2>=0.000
      20 -> 22         0.49710
      20 -> 23        -0.11439
      21 -> 22         0.20673
      21 -> 23         0.44359
 This state for optimization and/or second-order correction.
 Total Energy, E(TD-HF/TD-DFT) =  -232.031019367
 Copying the excited state density for this state as the 1-particle RhoCI density.

 The electronic state is 1-A.
 Alpha  occ. eigenvalues --  -10.20695 -10.20644 -10.20586 -10.20234 -10.19990
 Alpha  occ. eigenvalues --  -10.19226  -0.82235  -0.73944  -0.71680  -0.60690
 Alpha  occ. eigenvalues --   -0.57924  -0.50653  -0.47323  -0.42693  -0.42002
 Alpha  occ. eigenvalues --   -0.39906  -0.34569  -0.34155  -0.33382  -0.24523
 Alpha  occ. eigenvalues --   -0.22948
 Alpha virt. eigenvalues --   -0.02481  -0.00167   0.09052   0.12306   0.13567
 Alpha virt. eigenvalues --    0.15160   0.16042   0.17111   0.19353   0.26792
 Alpha virt. eigenvalues --    0.27275   0.28546   0.29171   0.46839   0.47903

 Mulliken charges:
               1
     1  C   -0.087435
     2  C   -0.090909
     3  C   -0.103040
     4  C   -0.068597
     5  C   -0.099147
     6  C   -0.100470
     7  H    0.099519
     8  H    0.093272
     9  H    0.083047
    10  H    0.091661
    11  H    0.095771
    12  H    0.086329
 Sum of Mulliken charges =  -0.00000

 Dipole moment (field-independent basis, Debye):
    X=              0.0012    Y=             -0.1817    Z=             -0.2121  Tot=              0.2793
 Quadrupole moment (field-independent basis, Debye-Ang):
   XX=            -30.5538   YY=            -32.0303   ZZ=            -39.1092
   XY=              0.2107   XZ=              0.1237   YZ=             -0.4260

 Normal termination of Gaussian 16 at Fri Nov 10 22:18:59 2023.
