 Gaussian 16, Revision B.01,
 Gaussian 16:  EM64L-G16RevB.01 20-Dec-2017

 ---------------------------------
 # TD=(NStates=1) B3LYP/6-31G(d,p)
 ---------------------------------

 -------
 EMISPCT
 -------
 Symbolic Z-matrix:
 Charge =  0 Multiplicity = 1

                         Standard orientation:
 ---------------------------------------------------------------------
 Center     Atomic      Atomic             Coordinates (Angstroms)
 Number     Number       Type             X           Y           Z
 ---------------------------------------------------------------------
      1          6           0        1.314604    0.532524    0.052323
      2          6           0        0.152921    1.445106   -0.124757
      3          6           0       -1.099542    0.848105    0.026241
      4          6           0       -1.324553   -0.563499    0.064413
      5          6           0       -0.157837   -1.374927   -0.100915
      6          6           0        1.098033   -0.861481    0.007428
      7          1           0        2.324016    0.964898    0.285819
      8          1           0        2.055110   -1.648504    0.115540
      9          1           0       -0.213884   -2.475600   -0.164313
     10          1           0       -2.489200   -0.820335    0.231051
     11          1           0       -2.034958    1.288215    0.044894
     12          1           0        0.457157    2.536351   -0.061390
 ---------------------------------------------------------------------

 SCF Done:  E(RB3LYP) =  -232.203672206     A.U. after   13 cycles

 Excitation energies and oscillator strengths:

 Excited State   1:      Singlet-A      5.2301 eV  237.06 nm  f=0.0032  <S**2>=0.000
      20 -> 22         0.49758
      20 -> 23        -0.11117
      21 -> 22         0.20531
      21 -> 23         0.44446
 This state for optimization and/or second-order correction.
 Total Energy, E(TD-HF/TD-DFT) =  -232.011469602
 Copying the excited state density for this state as the 1-particle RhoCI density.

 The electronic state is 1-A.
 Alpha  occ. eigenvalues --  -10.20774 -10.20602 -10.20328 -10.20272 -10.19540
 Alpha  occ. eigenvalues --  -10.18939  -0.83998  -0.74224  -0.72719  -0.59960
 Alpha  occ. eigenvalues --   -0.58275  -0.50876  -0.44959  -0.43514  -0.40902
 Alpha  occ. eigenvalues --   -0.40215  -0.36014  -0.34343  -0.31936  -0.25206
 Alpha  occ. eigenvalues --   -0.23771
 Alpha virt. eigenvalues --   -0.01724   0.00521   0.06385   0.11028   0.12483
 Alpha virt. eigenvalues --    0.14029   0.16604   0.17268   0.18906   0.25991
 Alpha virt. eigenvalues --    0.29515   0.30200   0.32785   0.46459   0.49187

 Mulliken charges:
               1
     1  C   -0.112062
     2  C   -0.090484
     3  C   -0.073603
     4  C   -0.094557
     5  C   -0.093376
     6  C   -0.062050
     7  H    0.093317
     8  H    0.076761
     9  H    0.084859
    10  H    0.094391
    11  H    0.082170
    12  H    0.094633
 Sum of Mulliken charges =  -0.00000

 Dipole moment (field-independent basis, Debye):
    X=             -0.0572    Y=              0.0512    Z=              0.2616  Tot=              0.2726
 Quadrupole moment (field-independent basis, Debye-Ang):
   XX=            -31.1663   YY=            -32.2961   ZZ=            -38.9848
   XY=              0.2387   XZ=              0.2115   YZ=              0.1951

 Normal termination of Gaussian 16 at Fri Nov 10 20:22:50 2023.
