 Gaussian 16, Revision B.01,
 Gaussian 16:  EM64L-G16RevB.01 20-Dec-2017

 ---------------------------------
 # TD=(NStates=1) B3LYP/6-31G(d,p)
 ---------------------------------

 -------
 EMISPCT
 -------
 Symbolic Z-matrix:
 Charge =  0 Multiplicity = 1

                         Standard orientation:
 ---------------------------------------------------------------------
 Center     Atomic      Atomic             Coordinates (Angstroms)
 Number     Number       Type             X           Y           Z
 ---------------------------------------------------------------------
      1          6           0       -1.511970   -0.152803   -0.024722
      2          6           0       -0.756345    1.134578   -0.052486
      3          6           0        0.581956    1.296416    0.016889
      4          6           0        1.437389    0.098911   -0.087321
      5          6           0        0.842318   -1.136491   -0.026622
      6          6           0       -0.606299   -1.247128    0.113916
      7          1           0       -2.582047   -0.158923    0.154872
      8          1           0       -1.005479   -2.207016   -0.135312
      9          1           0        1.446976   -2.075901   -0.028564
     10          1           0        2.631898    0.205871    0.146354
     11          1           0        0.973514    2.267330    0.428823
     12          1           0       -1.387149    2.007746   -0.204097
 ---------------------------------------------------------------------

 SCF Done:  E(RB3LYP) =  -232.204490663     A.U. after   13 cycles

 Excitation energies and oscillator strengths:

 Excited State   1:      Singlet-A      4.9591 eV  250.01 nm  f=0.0062  <S**2>=0.000
      20 -> 22         0.34706
      20 -> 23         0.27453
      21 -> 22         0.44836
      21 -> 23        -0.31920
 This state for optimization and/or second-order correction.
 Total Energy, E(TD-HF/TD-DFT) =  -232.022248061
 Copying the excited state density for this state as the 1-particle RhoCI density.

 The electronic state is 1-A.
 Alpha  occ. eigenvalues --  -10.20787 -10.20540 -10.19827 -10.19753 -10.19577
 Alpha  occ. eigenvalues --  -10.19286  -0.83535  -0.73724  -0.73144  -0.59707
 Alpha  occ. eigenvalues --   -0.58403  -0.50579  -0.45709  -0.43137  -0.41733
 Alpha  occ. eigenvalues --   -0.40826  -0.35699  -0.33571  -0.32363  -0.24622
 Alpha  occ. eigenvalues --   -0.23874
 Alpha virt. eigenvalues --   -0.02096  -0.00476   0.07971   0.11277   0.13778
 Alpha virt. eigenvalues --    0.14653   0.16472   0.17533   0.18093   0.26255
 Alpha virt. eigenvalues --    0.26863   0.30735   0.32639   0.44893   0.47477

 Mulliken charges:
               1
     1  C   -0.090376
     2  C   -0.089413
     3  C   -0.090627
     4  C   -0.091468
     5  C   -0.082510
     6  C   -0.102146
     7  H    0.107194
     8  H    0.087197
     9  H    0.093471
    10  H    0.078134
    11  H    0.100421
    12  H    0.080123
 Sum of Mulliken charges =  -0.00000

 Dipole moment (field-independent basis, Debye):
    X=             -0.1786    Y=              0.0412    Z=              0.2379  Tot=              0.3003
 Quadrupole moment (field-independent basis, Debye-Ang):
   XX=            -31.3945   YY=            -32.3061   ZZ=            -38.7333
   XY=             -0.2825   XZ=              0.6222   YZ=              0.8506

 Normal termination of Gaussian 16 at Fri Nov 10 21:39:43 2023.
