 Gaussian 16, Revision B.01,
 Gaussian 16:  EM64L-G16RevB.01 20-Dec-2017

 ---------------------------------
 # TD=(NStates=1) B3LYP/6-31G(d,p)
 ---------------------------------

 -------
 EMISPCT
 -------
 Symbolic Z-matrix:
 Charge =  0 Multiplicity = 1

                         Standard orientation:
 ---------------------------------------------------------------------
 Center     Atomic      Atomic             Coordinates (Angstroms)
 Number     Number       Type             X           Y           Z
 ---------------------------------------------------------------------
      1          6           0        1.353843    0.552699    0.000624
      2          6           0        1.134353   -0.912201   -0.012943
      3          6           0       -0.215642   -1.437814   -0.029778
      4          6           0       -1.317834   -0.490468    0.006445
      5          6           0       -1.147382    0.847066    0.001752
      6          6           0        0.187627    1.421865    0.035977
      7          1           0        2.297378    0.917084   -0.080720
      8          1           0        0.375373    2.494506   -0.072006
      9          1           0       -1.987068    1.655880    0.021255
     10          1           0       -2.357769   -1.111369   -0.125406
     11          1           0       -0.286544   -2.408858    0.202183
     12          1           0        1.988843   -1.434126    0.042225
 ---------------------------------------------------------------------

 SCF Done:  E(RB3LYP) =  -232.202426499     A.U. after   12 cycles

 Excitation energies and oscillator strengths:

 Excited State   1:      Singlet-A      5.0997 eV  243.12 nm  f=0.0003  <S**2>=0.000
      20 -> 22         0.51124
      21 -> 23        -0.48510
 This state for optimization and/or second-order correction.
 Total Energy, E(TD-HF/TD-DFT) =  -232.015017135
 Copying the excited state density for this state as the 1-particle RhoCI density.

 The electronic state is 1-A.
 Alpha  occ. eigenvalues --  -10.20657 -10.20320 -10.20193 -10.19345 -10.19252
 Alpha  occ. eigenvalues --  -10.19209  -0.82938  -0.73675  -0.72979  -0.60469
 Alpha  occ. eigenvalues --   -0.59203  -0.50934  -0.47339  -0.43432  -0.41582
 Alpha  occ. eigenvalues --   -0.40816  -0.35034  -0.34171  -0.32447  -0.24635
 Alpha  occ. eigenvalues --   -0.23813
 Alpha virt. eigenvalues --   -0.01566  -0.00316   0.07932   0.13417   0.14004
 Alpha virt. eigenvalues --    0.14791   0.16240   0.17882   0.19807   0.27265
 Alpha virt. eigenvalues --    0.27695   0.28913   0.31158   0.47395   0.48732

 Mulliken charges:
               1
     1  C   -0.083983
     2  C   -0.083962
     3  C   -0.085185
     4  C   -0.088132
     5  C   -0.079778
     6  C   -0.099009
     7  H    0.084897
     8  H    0.091265
     9  H    0.090030
    10  H    0.078810
    11  H    0.092678
    12  H    0.082368
 Sum of Mulliken charges =  -0.00000

 Dipole moment (field-independent basis, Debye):
    X=              0.2850    Y=              0.0279    Z=              0.0117  Tot=              0.2866
 Quadrupole moment (field-independent basis, Debye-Ang):
   XX=            -31.7036   YY=            -31.0813   ZZ=            -38.9217
   XY=              0.0203   XZ=              0.0296   YZ=             -0.5803

 Normal termination of Gaussian 16 at Fri Nov 10 21:56:38 2023.
