 Gaussian 16, Revision B.01,
 Gaussian 16:  EM64L-G16RevB.01 20-Dec-2017

 ---------------------------------
 # TD=(NStates=1) B3LYP/6-31G(d,p)
 ---------------------------------

 -------
 EMISPCT
 -------
 Symbolic Z-matrix:
 Charge =  0 Multiplicity = 1

                         Standard orientation:
 ---------------------------------------------------------------------
 Center     Atomic      Atomic             Coordinates (Angstroms)
 Number     Number       Type             X           Y           Z
 ---------------------------------------------------------------------
      1          6           0       -0.610965   -1.287875   -0.094476
      2          6           0       -1.459506   -0.117010    0.020708
      3          6           0       -0.785548    1.118899   -0.030622
      4          6           0        0.581152    1.279209   -0.064001
      5          6           0        1.445873    0.104218    0.058586
      6          6           0        0.847825   -1.182381    0.036808
      7          1           0       -1.057243   -2.117042   -0.120988
      8          1           0        1.358596   -2.016211    0.191587
      9          1           0        2.538291    0.358348    0.023247
     10          1           0        0.866665    2.366934   -0.295328
     11          1           0       -1.266016    2.030904    0.512582
     12          1           0       -2.553277   -0.113293    0.126882
 ---------------------------------------------------------------------

 SCF Done:  E(RB3LYP) =  -232.187373051     A.U. after   13 cycles

 Excitation energies and oscillator strengths:

 Excited State   1:      Singlet-A      4.9685 eV  249.54 nm  f=0.0001  <S**2>=0.000
      20 -> 22         0.49925
      21 -> 23        -0.49172
 This state for optimization and/or second-order correction.
 Total Energy, E(TD-HF/TD-DFT) =  -232.004784751
 Copying the excited state density for this state as the 1-particle RhoCI density.

 The electronic state is 1-A.
 Alpha  occ. eigenvalues --  -10.20518 -10.19744 -10.19734 -10.19584 -10.18919
 Alpha  occ. eigenvalues --  -10.18755  -0.83367  -0.73973  -0.73252  -0.60548
 Alpha  occ. eigenvalues --   -0.59592  -0.51222  -0.46476  -0.43232  -0.41818
 Alpha  occ. eigenvalues --   -0.40963  -0.36683  -0.34321  -0.31383  -0.24449
 Alpha  occ. eigenvalues --   -0.23682
 Alpha virt. eigenvalues --   -0.01577  -0.00851   0.09001   0.12349   0.13669
 Alpha virt. eigenvalues --    0.15298   0.16970   0.17922   0.19050   0.27561
 Alpha virt. eigenvalues --    0.28753   0.29476   0.31803   0.46934   0.47390

 Mulliken charges:
               1
     1  C   -0.072288
     2  C   -0.090163
     3  C   -0.088832
     4  C   -0.091991
     5  C   -0.097850
     6  C   -0.077562
     7  H    0.069087
     8  H    0.088525
     9  H    0.093196
    10  H    0.094087
    11  H    0.076705
    12  H    0.097083
 Sum of Mulliken charges =  -0.00000

 Dipole moment (field-independent basis, Debye):
    X=              0.0308    Y=             -0.2168    Z=              0.2478  Tot=              0.3307
 Quadrupole moment (field-independent basis, Debye-Ang):
   XX=            -31.7494   YY=            -31.6621   ZZ=            -38.4929
   XY=              0.4477   XZ=             -0.5495   YZ=              0.0629

 Normal termination of Gaussian 16 at Fri Nov 10 19:57:52 2023.
