 Gaussian 16, Revision B.01,
 Gaussian 16:  EM64L-G16RevB.01 20-Dec-2017

 ---------------------------------
 # TD=(NStates=1) B3LYP/6-31G(d,p)
 ---------------------------------

 -------
 EMISPCT
 -------
 Symbolic Z-matrix:
 Charge =  0 Multiplicity = 1

                         Standard orientation:
 ---------------------------------------------------------------------
 Center     Atomic      Atomic             Coordinates (Angstroms)
 Number     Number       Type             X           Y           Z
 ---------------------------------------------------------------------
      1          6           0       -1.255138    0.549138   -0.054104
      2          6           0       -0.174861    1.328077   -0.057545
      3          6           0        1.178531    0.822815    0.077351
      4          6           0        1.324309   -0.577882   -0.062724
      5          6           0        0.164306   -1.386282   -0.038030
      6          6           0       -1.176918   -0.797457    0.125405
      7          1           0       -2.360770    1.043025   -0.038619
      8          1           0       -2.150264   -1.267268   -0.012838
      9          1           0        0.101339   -2.484787    0.047995
     10          1           0        2.309653   -1.125462   -0.168709
     11          1           0        1.947652    1.625169    0.334201
     12          1           0       -0.208979    2.578871   -0.104147
 ---------------------------------------------------------------------

 SCF Done:  E(RB3LYP) =  -232.199891917     A.U. after   13 cycles

 Excitation energies and oscillator strengths:

 Excited State   1:      Singlet-A      5.2879 eV  234.47 nm  f=0.0043  <S**2>=0.000
      20 -> 22         0.48300
      20 -> 23         0.10840
      21 -> 22         0.22160
      21 -> 23        -0.45312
 This state for optimization and/or second-order correction.
 Total Energy, E(TD-HF/TD-DFT) =  -232.005566548
 Copying the excited state density for this state as the 1-particle RhoCI density.

 The electronic state is 1-A.
 Alpha  occ. eigenvalues --  -10.20752 -10.20653 -10.20296 -10.20133 -10.19149
 Alpha  occ. eigenvalues --  -10.19049  -0.84694  -0.74651  -0.72738  -0.60081
 Alpha  occ. eigenvalues --   -0.58408  -0.50487  -0.44879  -0.43638  -0.41683
 Alpha  occ. eigenvalues --   -0.39226  -0.36070  -0.34996  -0.31482  -0.25644
 Alpha  occ. eigenvalues --   -0.23756
 Alpha virt. eigenvalues --   -0.01766   0.00573   0.05962   0.11886   0.12549
 Alpha virt. eigenvalues --    0.14698   0.15618   0.16661   0.17744   0.26848
 Alpha virt. eigenvalues --    0.28640   0.30694   0.34040   0.46171   0.49510

 Mulliken charges:
               1
     1  C   -0.066721
     2  C   -0.075727
     3  C   -0.092347
     4  C   -0.089356
     5  C   -0.107512
     6  C   -0.091752
     7  H    0.072235
     8  H    0.094593
     9  H    0.095068
    10  H    0.094051
    11  H    0.101111
    12  H    0.066357
 Sum of Mulliken charges =  -0.00000

 Dipole moment (field-independent basis, Debye):
    X=              0.0603    Y=             -0.0559    Z=              0.0482  Tot=              0.0954
 Quadrupole moment (field-independent basis, Debye-Ang):
   XX=            -31.7254   YY=            -32.1620   ZZ=            -38.9165
   XY=              0.5665   XZ=              0.3512   YZ=              0.3705

 Normal termination of Gaussian 16 at Fri Nov 10 20:31:28 2023.
