 Gaussian 16, Revision B.01,
 Gaussian 16:  EM64L-G16RevB.01 20-Dec-2017

 ---------------------------------
 # TD=(NStates=1) B3LYP/6-31G(d,p)
 ---------------------------------

 -------
 EMISPCT
 -------
 Symbolic Z-matrix:
 Charge =  0 Multiplicity = 1

                         Standard orientation:
 ---------------------------------------------------------------------
 Center     Atomic      Atomic             Coordinates (Angstroms)
 Number     Number       Type             X           Y           Z
 ---------------------------------------------------------------------
      1          6           0        1.399985    0.147256   -0.061498
      2          6           0        0.916705   -1.134920    0.057503
      3          6           0       -0.610519   -1.297232   -0.062815
      4          6           0       -1.482131   -0.137706    0.053497
      5          6           0       -0.847964    1.103843   -0.047729
      6          6           0        0.566016    1.331221    0.042157
      7          1           0        2.564071    0.178683   -0.045876
      8          1           0        1.081279    2.393559    0.064223
      9          1           0       -1.438382    1.966789   -0.093298
     10          1           0       -2.448722   -0.367337    0.215363
     11          1           0       -0.985812   -2.224097   -0.212424
     12          1           0        1.575015   -2.022373    0.185321
 ---------------------------------------------------------------------

 SCF Done:  E(RB3LYP) =  -232.199941306     A.U. after   13 cycles

 Excitation energies and oscillator strengths:

 Excited State   1:      Singlet-A      4.9370 eV  251.13 nm  f=0.0005  <S**2>=0.000
      20 -> 22         0.51141
      21 -> 23         0.48088
 This state for optimization and/or second-order correction.
 Total Energy, E(TD-HF/TD-DFT) =  -232.018509607
 Copying the excited state density for this state as the 1-particle RhoCI density.

 The electronic state is 1-A.
 Alpha  occ. eigenvalues --  -10.20901 -10.20125 -10.19933 -10.19795 -10.19294
 Alpha  occ. eigenvalues --  -10.19135  -0.82863  -0.74210  -0.72164  -0.60184
 Alpha  occ. eigenvalues --   -0.58764  -0.50982  -0.47068  -0.43319  -0.41577
 Alpha  occ. eigenvalues --   -0.40465  -0.35063  -0.34486  -0.32736  -0.24641
 Alpha  occ. eigenvalues --   -0.22795
 Alpha virt. eigenvalues --   -0.02028   0.00103   0.08253   0.12820   0.13441
 Alpha virt. eigenvalues --    0.15295   0.16824   0.17272   0.18820   0.25974
 Alpha virt. eigenvalues --    0.27992   0.29942   0.32050   0.44837   0.47018

 Mulliken charges:
               1
     1  C   -0.082903
     2  C   -0.087279
     3  C   -0.107582
     4  C   -0.060909
     5  C   -0.095084
     6  C   -0.092074
     7  H    0.074590
     8  H    0.095120
     9  H    0.083111
    10  H    0.092335
    11  H    0.085089
    12  H    0.095586
 Sum of Mulliken charges =  -0.00000

 Dipole moment (field-independent basis, Debye):
    X=             -0.1440    Y=             -0.1661    Z=              0.0764  Tot=              0.2327
 Quadrupole moment (field-independent basis, Debye-Ang):
   XX=            -31.3317   YY=            -31.3268   ZZ=            -38.9175
   XY=              0.1490   XZ=              0.0318   YZ=             -0.0252

 Normal termination of Gaussian 16 at Fri Nov 10 19:47:47 2023.
