 Gaussian 16, Revision B.01,
 Gaussian 16:  EM64L-G16RevB.01 20-Dec-2017

 ---------------------------------
 # TD=(NStates=1) B3LYP/6-31G(d,p)
 ---------------------------------

 -------
 EMISPCT
 -------
 Symbolic Z-matrix:
 Charge =  0 Multiplicity = 1

                         Standard orientation:
 ---------------------------------------------------------------------
 Center     Atomic      Atomic             Coordinates (Angstroms)
 Number     Number       Type             X           Y           Z
 ---------------------------------------------------------------------
      1          6           0       -1.146379   -0.854395   -0.030508
      2          6           0        0.124849   -1.353329   -0.142893
      3          6           0        1.366337   -0.581406   -0.026811
      4          6           0        1.173563    0.903581   -0.001362
      5          6           0       -0.190292    1.392934   -0.028958
      6          6           0       -1.335411    0.527491    0.053250
      7          1           0       -2.040784   -1.559051    0.211385
      8          1           0       -2.479742    0.942932    0.052494
      9          1           0       -0.312512    2.423349    0.061501
     10          1           0        1.988065    1.524831    0.029050
     11          1           0        2.422224   -1.077428    0.364192
     12          1           0        0.466744   -2.463890    0.345071
 ---------------------------------------------------------------------

 SCF Done:  E(RB3LYP) =  -232.176218457     A.U. after   13 cycles

 Excitation energies and oscillator strengths:

 Excited State   1:      Singlet-A      4.9683 eV  249.55 nm  f=0.0000  <S**2>=0.000
      20 -> 22         0.49962
      21 -> 23         0.49908
 This state for optimization and/or second-order correction.
 Total Energy, E(TD-HF/TD-DFT) =  -231.993636132
 Copying the excited state density for this state as the 1-particle RhoCI density.

 The electronic state is 1-A.
 Alpha  occ. eigenvalues --  -10.22111 -10.21109 -10.20864 -10.20272 -10.20259
 Alpha  occ. eigenvalues --  -10.19998  -0.83415  -0.73817  -0.72348  -0.59456
 Alpha  occ. eigenvalues --   -0.58642  -0.49988  -0.45282  -0.43592  -0.40886
 Alpha  occ. eigenvalues --   -0.39930  -0.35118  -0.34748  -0.31094  -0.24848
 Alpha  occ. eigenvalues --   -0.24024
 Alpha virt. eigenvalues --   -0.02042  -0.01201   0.05588   0.10505   0.11083
 Alpha virt. eigenvalues --    0.13807   0.15989   0.16784   0.18314   0.26217
 Alpha virt. eigenvalues --    0.27198   0.29439   0.31616   0.46918   0.48921

 Mulliken charges:
               1
     1  C   -0.076913
     2  C   -0.085525
     3  C   -0.106541
     4  C   -0.084358
     5  C   -0.088565
     6  C   -0.083626
     7  H    0.095726
     8  H    0.085583
     9  H    0.090395
    10  H    0.092227
    11  H    0.096900
    12  H    0.064698
 Sum of Mulliken charges =  -0.00000

 Dipole moment (field-independent basis, Debye):
    X=              0.0533    Y=              0.3677    Z=              0.6056  Tot=              0.7105
 Quadrupole moment (field-independent basis, Debye-Ang):
   XX=            -31.0995   YY=            -32.9783   ZZ=            -39.0561
   XY=              0.0884   XZ=              0.5381   YZ=             -1.0039

 Normal termination of Gaussian 16 at Fri Nov 10 20:40:45 2023.
