 Gaussian 16, Revision B.01,
 Gaussian 16:  EM64L-G16RevB.01 20-Dec-2017

 ---------------------------------
 # TD=(NStates=1) B3LYP/6-31G(d,p)
 ---------------------------------

 -------
 EMISPCT
 -------
 Symbolic Z-matrix:
 Charge =  0 Multiplicity = 1

                         Standard orientation:
 ---------------------------------------------------------------------
 Center     Atomic      Atomic             Coordinates (Angstroms)
 Number     Number       Type             X           Y           Z
 ---------------------------------------------------------------------
      1          6           0       -1.390092    0.533704    0.008299
      2          6           0       -1.163863   -0.876134   -0.030070
      3          6           0        0.212673   -1.392051   -0.082693
      4          6           0        1.307379   -0.543342   -0.025033
      5          6           0        1.217494    0.871009    0.081223
      6          6           0       -0.185088    1.399546   -0.036937
      7          1           0       -2.444531    0.926769    0.000081
      8          1           0       -0.281095    2.545987   -0.230841
      9          1           0        1.969790    1.510671    0.246274
     10          1           0        2.393970   -1.003265   -0.067069
     11          1           0        0.347698   -2.500075    0.107605
     12          1           0       -1.976852   -1.436479    0.455215
 ---------------------------------------------------------------------

 SCF Done:  E(RB3LYP) =  -232.201682337     A.U. after   13 cycles

 Excitation energies and oscillator strengths:

 Excited State   1:      Singlet-A      4.8464 eV  255.83 nm  f=0.0044  <S**2>=0.000
      20 -> 22         0.46720
      20 -> 23         0.15639
      21 -> 22         0.28115
      21 -> 23        -0.42160
 This state for optimization and/or second-order correction.
 Total Energy, E(TD-HF/TD-DFT) =  -232.023581922
 Copying the excited state density for this state as the 1-particle RhoCI density.

 The electronic state is 1-A.
 Alpha  occ. eigenvalues --  -10.21611 -10.20763 -10.20557 -10.20240 -10.20052
 Alpha  occ. eigenvalues --  -10.20050  -0.82628  -0.73702  -0.72040  -0.59900
 Alpha  occ. eigenvalues --   -0.58188  -0.50464  -0.46232  -0.42932  -0.41845
 Alpha  occ. eigenvalues --   -0.39897  -0.36290  -0.32945  -0.32453  -0.24696
 Alpha  occ. eigenvalues --   -0.23373
 Alpha virt. eigenvalues --   -0.02559  -0.00585   0.08420   0.11564   0.12776
 Alpha virt. eigenvalues --    0.14010   0.15551   0.17439   0.17918   0.25530
 Alpha virt. eigenvalues --    0.27666   0.28822   0.31033   0.45982   0.47600

 Mulliken charges:
               1
     1  C   -0.091780
     2  C   -0.104334
     3  C   -0.093859
     4  C   -0.078242
     5  C   -0.068380
     6  C   -0.110142
     7  H    0.098618
     8  H    0.082546
     9  H    0.094912
    10  H    0.079503
    11  H    0.092912
    12  H    0.098248
 Sum of Mulliken charges =  -0.00000

 Dipole moment (field-independent basis, Debye):
    X=              0.1141    Y=              0.1539    Z=              0.3581  Tot=              0.4061
 Quadrupole moment (field-independent basis, Debye-Ang):
   XX=            -31.2577   YY=            -32.1869   ZZ=            -38.9975
   XY=              0.2387   XZ=             -0.3551   YZ=             -0.8437

 Normal termination of Gaussian 16 at Fri Nov 10 21:39:55 2023.
