 Gaussian 16, Revision B.01,
 Gaussian 16:  EM64L-G16RevB.01 20-Dec-2017

 ---------------------------------
 # TD=(NStates=1) B3LYP/6-31G(d,p)
 ---------------------------------

 -------
 EMISPCT
 -------
 Symbolic Z-matrix:
 Charge =  0 Multiplicity = 1

                         Standard orientation:
 ---------------------------------------------------------------------
 Center     Atomic      Atomic             Coordinates (Angstroms)
 Number     Number       Type             X           Y           Z
 ---------------------------------------------------------------------
      1          6           0       -1.352173    0.430535    0.136562
      2          6           0       -0.275760    1.389244   -0.089140
      3          6           0        1.077829    0.913624    0.012053
      4          6           0        1.367140   -0.475854    0.059606
      5          6           0        0.287383   -1.377994   -0.079710
      6          6           0       -1.075090   -0.943638   -0.027225
      7          1           0       -2.463463    0.713964    0.176067
      8          1           0       -2.033218   -1.454651   -0.199053
      9          1           0        0.531637   -2.419422    0.031559
     10          1           0        2.449119   -0.658028    0.159726
     11          1           0        1.922012    1.685577   -0.065472
     12          1           0       -0.582054    2.517059   -0.175705
 ---------------------------------------------------------------------

 SCF Done:  E(RB3LYP) =  -232.220648215     A.U. after   12 cycles

 Excitation energies and oscillator strengths:

 Excited State   1:      Singlet-A      5.1154 eV  242.37 nm  f=0.0008  <S**2>=0.000
      20 -> 22         0.42911
      20 -> 23        -0.21522
      21 -> 22         0.27438
      21 -> 23         0.44023
 This state for optimization and/or second-order correction.
 Total Energy, E(TD-HF/TD-DFT) =  -232.032660314
 Copying the excited state density for this state as the 1-particle RhoCI density.

 The electronic state is 1-A.
 Alpha  occ. eigenvalues --  -10.20827 -10.20161 -10.20127 -10.19877 -10.19832
 Alpha  occ. eigenvalues --  -10.19779  -0.83448  -0.73825  -0.72608  -0.60031
 Alpha  occ. eigenvalues --   -0.58134  -0.50484  -0.45471  -0.43872  -0.40962
 Alpha  occ. eigenvalues --   -0.40320  -0.35542  -0.33983  -0.32794  -0.24569
 Alpha  occ. eigenvalues --   -0.23932
 Alpha virt. eigenvalues --   -0.01152  -0.00534   0.07696   0.12482   0.13246
 Alpha virt. eigenvalues --    0.13713   0.16262   0.17003   0.18201   0.27694
 Alpha virt. eigenvalues --    0.28504   0.29325   0.31279   0.46623   0.49598

 Mulliken charges:
               1
     1  C   -0.096257
     2  C   -0.089462
     3  C   -0.096216
     4  C   -0.075593
     5  C   -0.107689
     6  C   -0.078786
     7  H    0.084822
     8  H    0.097746
     9  H    0.090523
    10  H    0.097730
    11  H    0.086055
    12  H    0.087129
 Sum of Mulliken charges =  -0.00000

 Dipole moment (field-independent basis, Debye):
    X=             -0.0502    Y=              0.0592    Z=             -0.0534  Tot=              0.0942
 Quadrupole moment (field-independent basis, Debye-Ang):
   XX=            -30.6005   YY=            -32.6336   ZZ=            -39.0554
   XY=              0.0354   XZ=              0.3904   YZ=             -0.2633

 Normal termination of Gaussian 16 at Fri Nov 10 22:36:26 2023.
