 Gaussian 16, Revision B.01,
 Gaussian 16:  EM64L-G16RevB.01 20-Dec-2017

 ---------------------------------
 # TD=(NStates=1) B3LYP/6-31G(d,p)
 ---------------------------------

 -------
 EMISPCT
 -------
 Symbolic Z-matrix:
 Charge =  0 Multiplicity = 1

                         Standard orientation:
 ---------------------------------------------------------------------
 Center     Atomic      Atomic             Coordinates (Angstroms)
 Number     Number       Type             X           Y           Z
 ---------------------------------------------------------------------
      1          6           0       -1.380187   -0.484908   -0.067554
      2          6           0       -1.104361    0.928687   -0.062631
      3          6           0        0.258235    1.371641    0.075558
      4          6           0        1.340580    0.454822   -0.096801
      5          6           0        1.106303   -0.872148    0.093764
      6          6           0       -0.258288   -1.420252   -0.036366
      7          1           0       -2.436731   -0.857730    0.359809
      8          1           0       -0.399214   -2.430461    0.071746
      9          1           0        2.048372   -1.458855    0.102380
     10          1           0        2.441253    0.743302   -0.262169
     11          1           0        0.472872    2.493219    0.379146
     12          1           0       -1.900248    1.643470   -0.086725
 ---------------------------------------------------------------------

 SCF Done:  E(RB3LYP) =  -232.200805792     A.U. after   13 cycles

 Excitation energies and oscillator strengths:

 Excited State   1:      Singlet-A      4.8142 eV  257.54 nm  f=0.0002  <S**2>=0.000
      20 -> 22        -0.48013
      21 -> 23         0.51182
 This state for optimization and/or second-order correction.
 Total Energy, E(TD-HF/TD-DFT) =  -232.023887141
 Copying the excited state density for this state as the 1-particle RhoCI density.

 The electronic state is 1-A.
 Alpha  occ. eigenvalues --  -10.21091 -10.20875 -10.20005 -10.19843 -10.19720
 Alpha  occ. eigenvalues --  -10.19562  -0.83296  -0.73907  -0.72349  -0.60051
 Alpha  occ. eigenvalues --   -0.57953  -0.50596  -0.45718  -0.42811  -0.41398
 Alpha  occ. eigenvalues --   -0.40582  -0.35207  -0.34198  -0.33524  -0.24296
 Alpha  occ. eigenvalues --   -0.23074
 Alpha virt. eigenvalues --   -0.01883  -0.00871   0.07085   0.11712   0.13265
 Alpha virt. eigenvalues --    0.13833   0.16814   0.17360   0.18046   0.27378
 Alpha virt. eigenvalues --    0.28100   0.30280   0.31224   0.46507   0.47818

 Mulliken charges:
               1
     1  C   -0.103146
     2  C   -0.089864
     3  C   -0.089810
     4  C   -0.083247
     5  C   -0.077403
     6  C   -0.096391
     7  H    0.092307
     8  H    0.091151
     9  H    0.084903
    10  H    0.089391
    11  H    0.086005
    12  H    0.096103
 Sum of Mulliken charges =  -0.00000

 Dipole moment (field-independent basis, Debye):
    X=              0.1487    Y=              0.0783    Z=              0.3489  Tot=              0.3873
 Quadrupole moment (field-independent basis, Debye-Ang):
   XX=            -31.3793   YY=            -32.2018   ZZ=            -38.8359
   XY=             -0.3061   XZ=             -0.8182   YZ=             -0.0846

 Normal termination of Gaussian 16 at Fri Nov 10 20:36:43 2023.
