 Gaussian 16, Revision B.01,
 Gaussian 16:  EM64L-G16RevB.01 20-Dec-2017

 ---------------------------------
 # TD=(NStates=1) B3LYP/6-31G(d,p)
 ---------------------------------

 -------
 EMISPCT
 -------
 Symbolic Z-matrix:
 Charge =  0 Multiplicity = 1

                         Standard orientation:
 ---------------------------------------------------------------------
 Center     Atomic      Atomic             Coordinates (Angstroms)
 Number     Number       Type             X           Y           Z
 ---------------------------------------------------------------------
      1          6           0       -0.380624   -1.295317   -0.040359
      2          6           0        0.908397   -0.987049    0.018227
      3          6           0        1.425171    0.241871   -0.013892
      4          6           0        0.482050    1.321324   -0.072866
      5          6           0       -0.984708    1.017094    0.065265
      6          6           0       -1.444653   -0.307588   -0.002420
      7          1           0       -0.629425   -2.344754    0.045589
      8          1           0       -2.569263   -0.539267   -0.262314
      9          1           0       -1.664210    1.857505    0.398521
     10          1           0        0.734742    2.490719   -0.238397
     11          1           0        2.488839    0.602693    0.182661
     12          1           0        1.605511   -2.008907    0.150210
 ---------------------------------------------------------------------

 SCF Done:  E(RB3LYP) =  -232.190537766     A.U. after   13 cycles

 Excitation energies and oscillator strengths:

 Excited State   1:      Singlet-A      5.1375 eV  241.33 nm  f=0.0021  <S**2>=0.000
      20 -> 22         0.45310
      20 -> 23        -0.16945
      21 -> 22         0.24206
      21 -> 23         0.45461
 This state for optimization and/or second-order correction.
 Total Energy, E(TD-HF/TD-DFT) =  -232.001737714
 Copying the excited state density for this state as the 1-particle RhoCI density.

 The electronic state is 1-A.
 Alpha  occ. eigenvalues --  -10.21449 -10.20687 -10.20470 -10.19938 -10.19289
 Alpha  occ. eigenvalues --  -10.18684  -0.84780  -0.74249  -0.72862  -0.59656
 Alpha  occ. eigenvalues --   -0.58055  -0.50495  -0.44769  -0.43985  -0.41194
 Alpha  occ. eigenvalues --   -0.39641  -0.36114  -0.34445  -0.31942  -0.24965
 Alpha  occ. eigenvalues --   -0.23718
 Alpha virt. eigenvalues --   -0.01454  -0.00205   0.06078   0.11368   0.12312
 Alpha virt. eigenvalues --    0.14530   0.15648   0.16235   0.18157   0.26333
 Alpha virt. eigenvalues --    0.29093   0.31339   0.32328   0.46945   0.49326

 Mulliken charges:
               1
     1  C   -0.081144
     2  C   -0.053418
     3  C   -0.091430
     4  C   -0.107791
     5  C   -0.098762
     6  C   -0.096812
     7  H    0.085517
     8  H    0.098786
     9  H    0.092036
    10  H    0.088073
    11  H    0.100840
    12  H    0.064106
 Sum of Mulliken charges =  -0.00000

 Dipole moment (field-independent basis, Debye):
    X=             -0.1046    Y=              0.1315    Z=              0.1514  Tot=              0.2262
 Quadrupole moment (field-independent basis, Debye-Ang):
   XX=            -32.0046   YY=            -31.9547   ZZ=            -38.8075
   XY=              0.4351   XZ=              0.4297   YZ=              0.0709

 Normal termination of Gaussian 16 at Fri Nov 10 22:36:25 2023.
