 Gaussian 16, Revision B.01,
 Gaussian 16:  EM64L-G16RevB.01 20-Dec-2017

 ---------------------------------
 # TD=(NStates=1) B3LYP/6-31G(d,p)
 ---------------------------------

 -------
 EMISPCT
 -------
 Symbolic Z-matrix:
 Charge =  0 Multiplicity = 1

                         Standard orientation:
 ---------------------------------------------------------------------
 Center     Atomic      Atomic             Coordinates (Angstroms)
 Number     Number       Type             X           Y           Z
 ---------------------------------------------------------------------
      1          6           0        0.021045    1.360405    0.003465
      2          6           0       -1.203503    0.728465    0.014789
      3          6           0       -1.287971   -0.637224   -0.072386
      4          6           0       -0.038571   -1.370918    0.116215
      5          6           0        1.217148   -0.724023   -0.124972
      6          6           0        1.267652    0.647113    0.000149
      7          1           0        0.111229    2.465332    0.162848
      8          1           0        2.247562    1.136999   -0.058471
      9          1           0        2.242935   -1.274451    0.110989
     10          1           0       -0.124056   -2.379049    0.341404
     11          1           0       -2.169091   -1.270167   -0.348669
     12          1           0       -2.163373    1.298429    0.168343
 ---------------------------------------------------------------------

 SCF Done:  E(RB3LYP) =  -232.217181918     A.U. after   13 cycles

 Excitation energies and oscillator strengths:

 Excited State   1:      Singlet-A      5.0989 eV  243.16 nm  f=0.0031  <S**2>=0.000
      20 -> 22         0.45110
      21 -> 22         0.17585
      21 -> 23         0.50686
 This state for optimization and/or second-order correction.
 Total Energy, E(TD-HF/TD-DFT) =  -232.029800189
 Copying the excited state density for this state as the 1-particle RhoCI density.

 The electronic state is 1-A.
 Alpha  occ. eigenvalues --  -10.19823 -10.19714 -10.19347 -10.19324 -10.19318
 Alpha  occ. eigenvalues --  -10.19245  -0.84415  -0.74566  -0.72858  -0.60100
 Alpha  occ. eigenvalues --   -0.58521  -0.51071  -0.45747  -0.43780  -0.41622
 Alpha  occ. eigenvalues --   -0.40171  -0.36942  -0.34062  -0.32256  -0.25281
 Alpha  occ. eigenvalues --   -0.23201
 Alpha virt. eigenvalues --   -0.01522  -0.00102   0.08463   0.11623   0.13851
 Alpha virt. eigenvalues --    0.15123   0.16918   0.17731   0.18466   0.28043
 Alpha virt. eigenvalues --    0.29600   0.30518   0.33140   0.46822   0.47706

 Mulliken charges:
               1
     1  C   -0.087942
     2  C   -0.075092
     3  C   -0.098205
     4  C   -0.093233
     5  C   -0.088786
     6  C   -0.081853
     7  H    0.081275
     8  H    0.092927
     9  H    0.074688
    10  H    0.088177
    11  H    0.098884
    12  H    0.089158
 Sum of Mulliken charges =  -0.00000

 Dipole moment (field-independent basis, Debye):
    X=             -0.1074    Y=             -0.0763    Z=              0.2291  Tot=              0.2643
 Quadrupole moment (field-independent basis, Debye-Ang):
   XX=            -31.4633   YY=            -32.2610   ZZ=            -38.5444
   XY=              0.6665   XZ=              0.4311   YZ=              0.0082

 Normal termination of Gaussian 16 at Fri Nov 10 22:15:37 2023.
