 Gaussian 16, Revision B.01,
 Gaussian 16:  EM64L-G16RevB.01 20-Dec-2017

 ---------------------------------
 # TD=(NStates=1) B3LYP/6-31G(d,p)
 ---------------------------------

 -------
 EMISPCT
 -------
 Symbolic Z-matrix:
 Charge =  0 Multiplicity = 1

                         Standard orientation:
 ---------------------------------------------------------------------
 Center     Atomic      Atomic             Coordinates (Angstroms)
 Number     Number       Type             X           Y           Z
 ---------------------------------------------------------------------
      1          6           0       -1.159474   -0.911734    0.040012
      2          6           0       -1.416753    0.573538   -0.084314
      3          6           0       -0.139600    1.372406   -0.007670
      4          6           0        1.131504    0.795832    0.056189
      5          6           0        1.380063   -0.567006   -0.090494
      6          6           0        0.176256   -1.305700   -0.014588
      7          1           0       -1.998577   -1.555805    0.458423
      8          1           0        0.366376   -2.395283   -0.052194
      9          1           0        2.439841   -0.880447    0.008232
     10          1           0        2.103541    1.555270    0.252879
     11          1           0       -0.310210    2.635063    0.080355
     12          1           0       -2.432945    0.897179   -0.142510
 ---------------------------------------------------------------------

 SCF Done:  E(RB3LYP) =  -232.180816379     A.U. after   14 cycles

 Excitation energies and oscillator strengths:

 Excited State   1:      Singlet-A      4.9729 eV  249.32 nm  f=0.0101  <S**2>=0.000
      20 -> 22         0.49498
      20 -> 23        -0.19607
      21 -> 22        -0.31523
      21 -> 23        -0.34095
 This state for optimization and/or second-order correction.
 Total Energy, E(TD-HF/TD-DFT) =  -231.998066623
 Copying the excited state density for this state as the 1-particle RhoCI density.

 The electronic state is 1-A.
 Alpha  occ. eigenvalues --  -10.21957 -10.21487 -10.20747 -10.20714 -10.20029
 Alpha  occ. eigenvalues --  -10.19662  -0.83576  -0.73547  -0.72368  -0.60243
 Alpha  occ. eigenvalues --   -0.57562  -0.49849  -0.46352  -0.43685  -0.40709
 Alpha  occ. eigenvalues --   -0.38414  -0.36277  -0.35031  -0.30479  -0.24512
 Alpha  occ. eigenvalues --   -0.24037
 Alpha virt. eigenvalues --   -0.02502   0.00120   0.05893   0.10873   0.11994
 Alpha virt. eigenvalues --    0.13924   0.15011   0.16601   0.17136   0.25640
 Alpha virt. eigenvalues --    0.26973   0.28267   0.33457   0.45834   0.48141

 Mulliken charges:
               1
     1  C   -0.097188
     2  C   -0.107667
     3  C   -0.083473
     4  C   -0.072956
     5  C   -0.075007
     6  C   -0.096491
     7  H    0.103276
     8  H    0.077456
     9  H    0.107142
    10  H    0.068885
    11  H    0.071085
    12  H    0.104939
 Sum of Mulliken charges =  -0.00000

 Dipole moment (field-independent basis, Debye):
    X=             -0.0693    Y=             -0.1436    Z=              0.3490  Tot=              0.3836
 Quadrupole moment (field-independent basis, Debye-Ang):
   XX=            -30.2987   YY=            -33.3116   ZZ=            -39.1618
   XY=             -0.3992   XZ=             -0.1458   YZ=             -0.2181

 Normal termination of Gaussian 16 at Fri Nov 10 22:08:41 2023.
