 Gaussian 16, Revision B.01,
 Gaussian 16:  EM64L-G16RevB.01 20-Dec-2017

 ---------------------------------
 # TD=(NStates=1) B3LYP/6-31G(d,p)
 ---------------------------------

 -------
 EMISPCT
 -------
 Symbolic Z-matrix:
 Charge =  0 Multiplicity = 1

                         Standard orientation:
 ---------------------------------------------------------------------
 Center     Atomic      Atomic             Coordinates (Angstroms)
 Number     Number       Type             X           Y           Z
 ---------------------------------------------------------------------
      1          6           0        0.526012   -1.294707   -0.041546
      2          6           0       -0.889244   -1.127552    0.013699
      3          6           0       -1.460344    0.220284   -0.049001
      4          6           0       -0.618564    1.281258   -0.010776
      5          6           0        0.926113    1.105624    0.057653
      6          6           0        1.484284   -0.214434   -0.015874
      7          1           0        0.900966   -2.302336    0.050685
      8          1           0        2.559444   -0.201457   -0.145871
      9          1           0        1.528287    1.916861    0.209900
     10          1           0       -0.836538    2.469305   -0.157499
     11          1           0       -2.474636    0.291645    0.097539
     12          1           0       -1.487062   -1.996863    0.220301
 ---------------------------------------------------------------------

 SCF Done:  E(RB3LYP) =  -232.205614266     A.U. after   13 cycles

 Excitation energies and oscillator strengths:

 Excited State   1:      Singlet-A      5.0438 eV  245.81 nm  f=0.0018  <S**2>=0.000
      20 -> 22         0.47531
      21 -> 22        -0.17180
      21 -> 23         0.48430
 This state for optimization and/or second-order correction.
 Total Energy, E(TD-HF/TD-DFT) =  -232.020256973
 Copying the excited state density for this state as the 1-particle RhoCI density.

 The electronic state is 1-A.
 Alpha  occ. eigenvalues --  -10.21109 -10.20010 -10.19825 -10.19745 -10.19710
 Alpha  occ. eigenvalues --  -10.19142  -0.82648  -0.74247  -0.72121  -0.59937
 Alpha  occ. eigenvalues --   -0.59033  -0.50794  -0.47290  -0.43910  -0.41562
 Alpha  occ. eigenvalues --   -0.39677  -0.35988  -0.34145  -0.31912  -0.24977
 Alpha  occ. eigenvalues --   -0.23161
 Alpha virt. eigenvalues --   -0.01740  -0.00188   0.08808   0.12861   0.13192
 Alpha virt. eigenvalues --    0.14961   0.16290   0.18318   0.18557   0.24967
 Alpha virt. eigenvalues --    0.27970   0.29198   0.31998   0.47158   0.47423

 Mulliken charges:
               1
     1  C   -0.097154
     2  C   -0.093728
     3  C   -0.082309
     4  C   -0.087159
     5  C   -0.096750
     6  C   -0.080278
     7  H    0.084192
     8  H    0.097871
     9  H    0.088133
    10  H    0.080160
    11  H    0.093048
    12  H    0.093975
 Sum of Mulliken charges =  -0.00000

 Dipole moment (field-independent basis, Debye):
    X=              0.1312    Y=              0.0083    Z=              0.1852  Tot=              0.2271
 Quadrupole moment (field-independent basis, Debye-Ang):
   XX=            -31.0443   YY=            -31.6927   ZZ=            -38.9283
   XY=              0.9026   XZ=             -0.4306   YZ=             -0.4104

 Normal termination of Gaussian 16 at Fri Nov 10 22:42:20 2023.
