 Gaussian 16, Revision B.01,
 Gaussian 16:  EM64L-G16RevB.01 20-Dec-2017

 ---------------------------------
 # TD=(NStates=1) B3LYP/6-31G(d,p)
 ---------------------------------

 -------
 EMISPCT
 -------
 Symbolic Z-matrix:
 Charge =  0 Multiplicity = 1

                         Standard orientation:
 ---------------------------------------------------------------------
 Center     Atomic      Atomic             Coordinates (Angstroms)
 Number     Number       Type             X           Y           Z
 ---------------------------------------------------------------------
      1          6           0        0.106440    1.406618    0.048895
      2          6           0       -1.236399    0.772535    0.019982
      3          6           0       -1.321526   -0.663826   -0.153609
      4          6           0       -0.102096   -1.338666    0.061157
      5          6           0        1.203186   -0.811690   -0.024281
      6          6           0        1.375603    0.604702   -0.021811
      7          1           0        0.165072    2.459226    0.000777
      8          1           0        2.290602    1.127236   -0.194236
      9          1           0        2.018868   -1.557926    0.094850
     10          1           0       -0.243301   -2.486483    0.310502
     11          1           0       -2.416926   -0.947798   -0.057041
     12          1           0       -1.965561    1.587701    0.263146
 ---------------------------------------------------------------------

 SCF Done:  E(RB3LYP) =  -232.200648459     A.U. after   13 cycles

 Excitation energies and oscillator strengths:

 Excited State   1:      Singlet-A      4.8329 eV  256.54 nm  f=0.0108  <S**2>=0.000
      20 -> 22         0.15955
      20 -> 23         0.35516
      21 -> 22         0.56714
      21 -> 23        -0.16170
 This state for optimization and/or second-order correction.
 Total Energy, E(TD-HF/TD-DFT) =  -232.023042041
 Copying the excited state density for this state as the 1-particle RhoCI density.

 The electronic state is 1-A.
 Alpha  occ. eigenvalues --  -10.20804 -10.20676 -10.20598 -10.20473 -10.20109
 Alpha  occ. eigenvalues --  -10.19759  -0.82785  -0.73511  -0.72267  -0.59931
 Alpha  occ. eigenvalues --   -0.58427  -0.50289  -0.46896  -0.42756  -0.41940
 Alpha  occ. eigenvalues --   -0.39717  -0.34916  -0.33549  -0.32731  -0.24677
 Alpha  occ. eigenvalues --   -0.23173
 Alpha virt. eigenvalues --   -0.01898  -0.00742   0.08020   0.11952   0.13419
 Alpha virt. eigenvalues --    0.13884   0.15581   0.16585   0.18454   0.26464
 Alpha virt. eigenvalues --    0.27647   0.28743   0.30498   0.45184   0.48104

 Mulliken charges:
               1
     1  C   -0.103604
     2  C   -0.096160
     3  C   -0.095698
     4  C   -0.089862
     5  C   -0.081549
     6  C   -0.092184
     7  H    0.085444
     8  H    0.096863
     9  H    0.094593
    10  H    0.079290
    11  H    0.103255
    12  H    0.099613
 Sum of Mulliken charges =  -0.00000

 Dipole moment (field-independent basis, Debye):
    X=             -0.0364    Y=              0.1932    Z=              0.2303  Tot=              0.3028
 Quadrupole moment (field-independent basis, Debye-Ang):
   XX=            -31.2740   YY=            -31.8573   ZZ=            -39.1134
   XY=             -0.2062   XZ=             -0.6321   YZ=             -0.4793

 Normal termination of Gaussian 16 at Fri Nov 10 20:37:30 2023.
