 Gaussian 16, Revision B.01,
 Gaussian 16:  EM64L-G16RevB.01 20-Dec-2017

 ---------------------------------
 # TD=(NStates=1) B3LYP/6-31G(d,p)
 ---------------------------------

 -------
 EMISPCT
 -------
 Symbolic Z-matrix:
 Charge =  0 Multiplicity = 1

                         Standard orientation:
 ---------------------------------------------------------------------
 Center     Atomic      Atomic             Coordinates (Angstroms)
 Number     Number       Type             X           Y           Z
 ---------------------------------------------------------------------
      1          6           0       -1.370089   -0.437112   -0.007653
      2          6           0       -1.100169    0.912167   -0.042289
      3          6           0        0.245716    1.329529   -0.007697
      4          6           0        1.454730    0.482656    0.034923
      5          6           0        1.115240   -0.954936    0.030767
      6          6           0       -0.304352   -1.348006   -0.020788
      7          1           0       -2.378247   -0.863686   -0.044541
      8          1           0       -0.574884   -2.235716    0.109121
      9          1           0        1.807778   -1.755933   -0.150261
     10          1           0        2.418718    0.848925    0.016092
     11          1           0        0.518143    2.473260   -0.153475
     12          1           0       -2.037961    1.627366    0.299480
 ---------------------------------------------------------------------

 SCF Done:  E(RB3LYP) =  -232.186954302     A.U. after   14 cycles

 Excitation energies and oscillator strengths:

 Excited State   1:      Singlet-A      4.9938 eV  248.28 nm  f=0.0041  <S**2>=0.000
      20 -> 22        -0.26559
      20 -> 23         0.34697
      21 -> 22         0.46284
      21 -> 23         0.30708
 This state for optimization and/or second-order correction.
 Total Energy, E(TD-HF/TD-DFT) =  -232.003434659
 Copying the excited state density for this state as the 1-particle RhoCI density.

 The electronic state is 1-A.
 Alpha  occ. eigenvalues --  -10.20930 -10.20629 -10.20556 -10.20351 -10.18974
 Alpha  occ. eigenvalues --  -10.17829  -0.83378  -0.73875  -0.72950  -0.59939
 Alpha  occ. eigenvalues --   -0.59736  -0.50947  -0.46930  -0.43076  -0.42478
 Alpha  occ. eigenvalues --   -0.39612  -0.35191  -0.34587  -0.32598  -0.24755
 Alpha  occ. eigenvalues --   -0.23574
 Alpha virt. eigenvalues --   -0.01441  -0.00873   0.07421   0.13113   0.14255
 Alpha virt. eigenvalues --    0.14788   0.15822   0.17112   0.20124   0.26198
 Alpha virt. eigenvalues --    0.28361   0.29937   0.30871   0.46869   0.47602

 Mulliken charges:
               1
     1  C   -0.082509
     2  C   -0.084289
     3  C   -0.101104
     4  C   -0.079254
     5  C   -0.107144
     6  C   -0.051356
     7  H    0.089744
     8  H    0.065880
     9  H    0.093257
    10  H    0.098994
    11  H    0.074758
    12  H    0.083022
 Sum of Mulliken charges =  -0.00000

 Dipole moment (field-independent basis, Debye):
    X=              0.0695    Y=             -0.2599    Z=              0.0486  Tot=              0.2733
 Quadrupole moment (field-independent basis, Debye-Ang):
   XX=            -30.7470   YY=            -32.3504   ZZ=            -38.8433
   XY=              0.6246   XZ=             -0.7359   YZ=              0.1586

 Normal termination of Gaussian 16 at Fri Nov 10 21:41:19 2023.
