 Gaussian 16, Revision B.01,
 Gaussian 16:  EM64L-G16RevB.01 20-Dec-2017

 ---------------------------------
 # TD=(NStates=1) B3LYP/6-31G(d,p)
 ---------------------------------

 -------
 EMISPCT
 -------
 Symbolic Z-matrix:
 Charge =  0 Multiplicity = 1

                         Standard orientation:
 ---------------------------------------------------------------------
 Center     Atomic      Atomic             Coordinates (Angstroms)
 Number     Number       Type             X           Y           Z
 ---------------------------------------------------------------------
      1          6           0       -0.041240   -1.362743    0.086544
      2          6           0        1.205439   -0.745534   -0.114089
      3          6           0        1.267571    0.583884   -0.048983
      4          6           0        0.088209    1.398473    0.035868
      5          6           0       -1.227903    0.793087   -0.010816
      6          6           0       -1.325984   -0.656537   -0.110781
      7          1           0       -0.030751   -2.372424    0.581739
      8          1           0       -2.373075   -1.044481   -0.212186
      9          1           0       -2.032025    1.321331    0.175609
     10          1           0        0.417461    2.425712    0.431152
     11          1           0        2.291444    1.038549   -0.178210
     12          1           0        1.930394   -1.432463    0.175432
 ---------------------------------------------------------------------

 SCF Done:  E(RB3LYP) =  -232.187455692     A.U. after   13 cycles

 Excitation energies and oscillator strengths:

 Excited State   1:      Singlet-A      4.8876 eV  253.67 nm  f=0.0057  <S**2>=0.000
      20 -> 22        -0.42346
      20 -> 23        -0.11702
      21 -> 22        -0.26725
      21 -> 23         0.48480
 This state for optimization and/or second-order correction.
 Total Energy, E(TD-HF/TD-DFT) =  -232.007840445
 Copying the excited state density for this state as the 1-particle RhoCI density.

 The electronic state is 1-A.
 Alpha  occ. eigenvalues --  -10.20949 -10.20155 -10.20014 -10.19456 -10.19202
 Alpha  occ. eigenvalues --  -10.17737  -0.83896  -0.74737  -0.72289  -0.59971
 Alpha  occ. eigenvalues --   -0.59549  -0.51071  -0.47079  -0.42931  -0.41933
 Alpha  occ. eigenvalues --   -0.40055  -0.36831  -0.33600  -0.32069  -0.25102
 Alpha  occ. eigenvalues --   -0.22867
 Alpha virt. eigenvalues --   -0.01982  -0.00583   0.09272   0.11151   0.13528
 Alpha virt. eigenvalues --    0.14445   0.15930   0.18682   0.19956   0.27359
 Alpha virt. eigenvalues --    0.28235   0.30260   0.32486   0.44935   0.47871

 Mulliken charges:
               1
     1  C   -0.112611
     2  C   -0.059781
     3  C   -0.094282
     4  C   -0.091052
     5  C   -0.084170
     6  C   -0.102372
     7  H    0.090684
     8  H    0.099206
     9  H    0.089118
    10  H    0.089381
    11  H    0.084733
    12  H    0.091146
 Sum of Mulliken charges =  -0.00000

 Dipole moment (field-independent basis, Debye):
    X=             -0.0981    Y=             -0.1188    Z=              0.6087  Tot=              0.6279
 Quadrupole moment (field-independent basis, Debye-Ang):
   XX=            -31.0513   YY=            -32.8730   ZZ=            -38.3127
   XY=             -0.0618   XZ=              0.2345   YZ=             -0.2114

 Normal termination of Gaussian 16 at Fri Nov 10 21:58:20 2023.
