 Gaussian 16, Revision B.01,
 Gaussian 16:  EM64L-G16RevB.01 20-Dec-2017

 ---------------------------------
 # TD=(NStates=1) B3LYP/6-31G(d,p)
 ---------------------------------

 -------
 EMISPCT
 -------
 Symbolic Z-matrix:
 Charge =  0 Multiplicity = 1

                         Standard orientation:
 ---------------------------------------------------------------------
 Center     Atomic      Atomic             Coordinates (Angstroms)
 Number     Number       Type             X           Y           Z
 ---------------------------------------------------------------------
      1          6           0        0.985127   -1.105378    0.069136
      2          6           0       -0.485324   -1.304640   -0.018896
      3          6           0       -1.505194   -0.253983   -0.112289
      4          6           0       -0.914937    1.075606    0.110673
      5          6           0        0.492983    1.313938   -0.011282
      6          6           0        1.396105    0.257952   -0.072059
      7          1           0        1.706771   -1.982320    0.104782
      8          1           0        2.473317    0.530755   -0.060049
      9          1           0        0.939690    2.325522    0.041653
     10          1           0       -1.517087    1.953062   -0.047650
     11          1           0       -2.541844   -0.457860    0.135989
     12          1           0       -0.873406   -2.270133    0.033580
 ---------------------------------------------------------------------

 SCF Done:  E(RB3LYP) =  -232.217217377     A.U. after   13 cycles

 Excitation energies and oscillator strengths:

 Excited State   1:      Singlet-A      4.9486 eV  250.55 nm  f=0.0043  <S**2>=0.000
      20 -> 22         0.29790
      20 -> 23        -0.34357
      21 -> 22         0.45755
      21 -> 23         0.28918
 This state for optimization and/or second-order correction.
 Total Energy, E(TD-HF/TD-DFT) =  -232.035360682
 Copying the excited state density for this state as the 1-particle RhoCI density.

 The electronic state is 1-A.
 Alpha  occ. eigenvalues --  -10.21028 -10.20520 -10.20147 -10.19873 -10.19728
 Alpha  occ. eigenvalues --  -10.19398  -0.82781  -0.73489  -0.72493  -0.59822
 Alpha  occ. eigenvalues --   -0.58828  -0.50622  -0.46623  -0.42431  -0.41819
 Alpha  occ. eigenvalues --   -0.40556  -0.35190  -0.33727  -0.33056  -0.24624
 Alpha  occ. eigenvalues --   -0.23812
 Alpha virt. eigenvalues --   -0.01965  -0.00897   0.08818   0.12385   0.13920
 Alpha virt. eigenvalues --    0.14666   0.16598   0.17632   0.18576   0.26265
 Alpha virt. eigenvalues --    0.27363   0.29598   0.30322   0.44725   0.46125

 Mulliken charges:
               1
     1  C   -0.089586
     2  C   -0.099534
     3  C   -0.102965
     4  C   -0.101389
     5  C   -0.079398
     6  C   -0.078573
     7  H    0.099667
     8  H    0.083385
     9  H    0.090754
    10  H    0.087110
    11  H    0.106025
    12  H    0.084504
 Sum of Mulliken charges =  -0.00000

 Dipole moment (field-independent basis, Debye):
    X=              0.1314    Y=             -0.0675    Z=              0.1551  Tot=              0.2142
 Quadrupole moment (field-independent basis, Debye-Ang):
   XX=            -31.1913   YY=            -31.6888   ZZ=            -39.0883
   XY=              0.2614   XZ=             -0.2218   YZ=             -0.3365

 Normal termination of Gaussian 16 at Fri Nov 10 20:28:47 2023.
