 Gaussian 16, Revision B.01,
 Gaussian 16:  EM64L-G16RevB.01 20-Dec-2017

 ---------------------------------
 # TD=(NStates=1) B3LYP/6-31G(d,p)
 ---------------------------------

 -------
 EMISPCT
 -------
 Symbolic Z-matrix:
 Charge =  0 Multiplicity = 1

                         Standard orientation:
 ---------------------------------------------------------------------
 Center     Atomic      Atomic             Coordinates (Angstroms)
 Number     Number       Type             X           Y           Z
 ---------------------------------------------------------------------
      1          6           0        0.353454    1.377127   -0.104109
      2          6           0       -1.083041    0.935788    0.063245
      3          6           0       -1.320912   -0.424994   -0.013338
      4          6           0       -0.308651   -1.398136   -0.041054
      5          6           0        1.030671   -0.930161    0.075053
      6          6           0        1.365908    0.427386    0.053534
      7          1           0        0.481584    2.583270   -0.342291
      8          1           0        2.378247    0.574851    0.111855
      9          1           0        1.880545   -1.575258   -0.131297
     10          1           0       -0.446438   -2.449704   -0.080472
     11          1           0       -2.607763   -0.739204   -0.171841
     12          1           0       -1.910750    1.683984    0.414051
 ---------------------------------------------------------------------

 SCF Done:  E(RB3LYP) =  -232.183963901     A.U. after   13 cycles

 Excitation energies and oscillator strengths:

 Excited State   1:      Singlet-A      5.0720 eV  244.45 nm  f=0.0014  <S**2>=0.000
      20 -> 22         0.52579
      21 -> 23         0.46051
 This state for optimization and/or second-order correction.
 Total Energy, E(TD-HF/TD-DFT) =  -231.997569974
 Copying the excited state density for this state as the 1-particle RhoCI density.

 The electronic state is 1-A.
 Alpha  occ. eigenvalues --  -10.21855 -10.21310 -10.20913 -10.19453 -10.19125
 Alpha  occ. eigenvalues --  -10.18871  -0.84084  -0.74380  -0.72727  -0.60124
 Alpha  occ. eigenvalues --   -0.58009  -0.50963  -0.44860  -0.43776  -0.40935
 Alpha  occ. eigenvalues --   -0.40473  -0.35650  -0.34732  -0.31901  -0.25027
 Alpha  occ. eigenvalues --   -0.23417
 Alpha virt. eigenvalues --   -0.02097   0.00258   0.05428   0.10516   0.13377
 Alpha virt. eigenvalues --    0.13531   0.14857   0.16442   0.19852   0.25845
 Alpha virt. eigenvalues --    0.28464   0.31369   0.32918   0.46360   0.48729

 Mulliken charges:
               1
     1  C   -0.103400
     2  C   -0.099546
     3  C   -0.065908
     4  C   -0.078477
     5  C   -0.104184
     6  C   -0.058932
     7  H    0.082118
     8  H    0.089323
     9  H    0.088311
    10  H    0.094939
    11  H    0.052238
    12  H    0.103519
 Sum of Mulliken charges =  -0.00000

 Dipole moment (field-independent basis, Debye):
    X=              0.2783    Y=              0.0181    Z=             -0.0767  Tot=              0.2893
 Quadrupole moment (field-independent basis, Debye-Ang):
   XX=            -31.9710   YY=            -31.9840   ZZ=            -38.8581
   XY=             -0.8247   XZ=             -0.4655   YZ=              0.4331

 Normal termination of Gaussian 16 at Fri Nov 10 22:14:49 2023.
