 Gaussian 16, Revision B.01,
 Gaussian 16:  EM64L-G16RevB.01 20-Dec-2017

 ---------------------------------
 # TD=(NStates=1) B3LYP/6-31G(d,p)
 ---------------------------------

 -------
 EMISPCT
 -------
 Symbolic Z-matrix:
 Charge =  0 Multiplicity = 1

                         Standard orientation:
 ---------------------------------------------------------------------
 Center     Atomic      Atomic             Coordinates (Angstroms)
 Number     Number       Type             X           Y           Z
 ---------------------------------------------------------------------
      1          6           0       -0.634044   -1.281815    0.037398
      2          6           0       -1.414798   -0.135469   -0.132542
      3          6           0       -0.825668    1.170582    0.017496
      4          6           0        0.571204    1.221720    0.035302
      5          6           0        1.383210    0.130569    0.044421
      6          6           0        0.910475   -1.153827   -0.062700
      7          1           0       -1.095618   -2.239384    0.538716
      8          1           0        1.502958   -1.943905   -0.082340
      9          1           0        2.446712    0.440744   -0.257669
     10          1           0        1.071261    2.225093    0.193865
     11          1           0       -1.392304    2.108829    0.020401
     12          1           0       -2.475290   -0.301942   -0.049225
 ---------------------------------------------------------------------

 SCF Done:  E(RB3LYP) =  -232.201124014     A.U. after   13 cycles

 Excitation energies and oscillator strengths:

 Excited State   1:      Singlet-A      5.0596 eV  245.05 nm  f=0.0015  <S**2>=0.000
      20 -> 22        -0.46286
      21 -> 23         0.52848
 This state for optimization and/or second-order correction.
 Total Energy, E(TD-HF/TD-DFT) =  -232.015185620
 Copying the excited state density for this state as the 1-particle RhoCI density.

 The electronic state is 1-A.
 Alpha  occ. eigenvalues --  -10.21039 -10.19812 -10.19590 -10.19259 -10.18836
 Alpha  occ. eigenvalues --  -10.18748  -0.84048  -0.74526  -0.72820  -0.61187
 Alpha  occ. eigenvalues --   -0.57674  -0.51278  -0.46332  -0.43482  -0.41644
 Alpha  occ. eigenvalues --   -0.40305  -0.36244  -0.34897  -0.31477  -0.25452
 Alpha  occ. eigenvalues --   -0.23189
 Alpha virt. eigenvalues --   -0.01978  -0.00270   0.08760   0.11244   0.14382
 Alpha virt. eigenvalues --    0.14872   0.17162   0.17778   0.18733   0.25902
 Alpha virt. eigenvalues --    0.29359   0.30905   0.32751   0.46278   0.47874

 Mulliken charges:
               1
     1  C   -0.114013
     2  C   -0.091397
     3  C   -0.078950
     4  C   -0.081418
     5  C   -0.068419
     6  C   -0.088884
     7  H    0.095760
     8  H    0.085913
     9  H    0.079794
    10  H    0.079070
    11  H    0.092718
    12  H    0.089827
 Sum of Mulliken charges =  -0.00000

 Dipole moment (field-independent basis, Debye):
    X=             -0.0942    Y=              0.0718    Z=              0.2196  Tot=              0.2495
 Quadrupole moment (field-independent basis, Debye-Ang):
   XX=            -31.9848   YY=            -31.7556   ZZ=            -38.4742
   XY=             -0.1272   XZ=             -0.8510   YZ=             -0.5892

 Normal termination of Gaussian 16 at Fri Nov 10 22:35:37 2023.
