 Gaussian 16, Revision B.01,
 Gaussian 16:  EM64L-G16RevB.01 20-Dec-2017

 ---------------------------------
 # TD=(NStates=1) B3LYP/6-31G(d,p)
 ---------------------------------

 -------
 EMISPCT
 -------
 Symbolic Z-matrix:
 Charge =  0 Multiplicity = 1

                         Standard orientation:
 ---------------------------------------------------------------------
 Center     Atomic      Atomic             Coordinates (Angstroms)
 Number     Number       Type             X           Y           Z
 ---------------------------------------------------------------------
      1          6           0       -1.514259   -0.100942   -0.009829
      2          6           0       -0.591447   -1.233426    0.027553
      3          6           0        0.719679   -1.171804   -0.126716
      4          6           0        1.479455    0.048281    0.108162
      5          6           0        0.697714    1.238454    0.063313
      6          6           0       -0.802347    1.201383   -0.098409
      7          1           0       -2.589787   -0.051100    0.242930
      8          1           0       -1.463497    2.113463   -0.086290
      9          1           0        1.297586    2.259528    0.002053
     10          1           0        2.585898    0.029453   -0.054308
     11          1           0        1.440576   -1.973355   -0.139500
     12          1           0       -1.203536   -2.269670    0.250669
 ---------------------------------------------------------------------

 SCF Done:  E(RB3LYP) =  -232.188923024     A.U. after   13 cycles

 Excitation energies and oscillator strengths:

 Excited State   1:      Singlet-A      4.9016 eV  252.95 nm  f=0.0071  <S**2>=0.000
      20 -> 22         0.40461
      20 -> 23         0.27191
      21 -> 22         0.40995
      21 -> 23        -0.30471
 This state for optimization and/or second-order correction.
 Total Energy, E(TD-HF/TD-DFT) =  -232.008794139
 Copying the excited state density for this state as the 1-particle RhoCI density.

 The electronic state is 1-A.
 Alpha  occ. eigenvalues --  -10.21503 -10.21424 -10.21058 -10.20573 -10.20360
 Alpha  occ. eigenvalues --  -10.18959  -0.83224  -0.73096  -0.72624  -0.59214
 Alpha  occ. eigenvalues --   -0.58632  -0.49686  -0.45934  -0.44375  -0.40878
 Alpha  occ. eigenvalues --   -0.38736  -0.35964  -0.34867  -0.30882  -0.24343
 Alpha  occ. eigenvalues --   -0.24012
 Alpha virt. eigenvalues --   -0.02402  -0.00489   0.07236   0.11648   0.12593
 Alpha virt. eigenvalues --    0.13424   0.14427   0.16545   0.18495   0.26026
 Alpha virt. eigenvalues --    0.26983   0.27509   0.32986   0.46378   0.47105

 Mulliken charges:
               1
     1  C   -0.098317
     2  C   -0.076424
     3  C   -0.072979
     4  C   -0.101196
     5  C   -0.091490
     6  C   -0.104077
     7  H    0.109388
     8  H    0.091805
     9  H    0.082414
    10  H    0.101129
    11  H    0.089544
    12  H    0.070203
 Sum of Mulliken charges =  -0.00000

 Dipole moment (field-independent basis, Debye):
    X=              0.0300    Y=              0.0883    Z=              0.1201  Tot=              0.1521
 Quadrupole moment (field-independent basis, Debye-Ang):
   XX=            -30.1418   YY=            -33.2574   ZZ=            -39.2219
   XY=             -0.5872   XZ=             -1.0236   YZ=             -0.3293

 Normal termination of Gaussian 16 at Fri Nov 10 22:20:21 2023.
