 Gaussian 16, Revision B.01,
 Gaussian 16:  EM64L-G16RevB.01 20-Dec-2017

 ---------------------------------
 # TD=(NStates=1) B3LYP/6-31G(d,p)
 ---------------------------------

 -------
 EMISPCT
 -------
 Symbolic Z-matrix:
 Charge =  0 Multiplicity = 1

                         Standard orientation:
 ---------------------------------------------------------------------
 Center     Atomic      Atomic             Coordinates (Angstroms)
 Number     Number       Type             X           Y           Z
 ---------------------------------------------------------------------
      1          6           0       -0.337944   -1.384631    0.015596
      2          6           0       -1.398112   -0.399283    0.013383
      3          6           0       -1.084500    1.004408   -0.060188
      4          6           0        0.360540    1.386003   -0.113443
      5          6           0        1.387341    0.343234    0.149689
      6          6           0        1.064639   -1.002152   -0.101311
      7          1           0       -0.868981   -2.429978   -0.287901
      8          1           0        1.853922   -1.677502    0.059917
      9          1           0        2.451641    0.683813    0.347770
     10          1           0        0.836977    2.489893   -0.283766
     11          1           0       -1.795969    1.887223    0.353816
     12          1           0       -2.429375   -0.638926    0.387807
 ---------------------------------------------------------------------

 SCF Done:  E(RB3LYP) =  -232.172126579     A.U. after   13 cycles

 Excitation energies and oscillator strengths:

 Excited State   1:      Singlet-A      4.6688 eV  265.56 nm  f=0.0007  <S**2>=0.000
      20 -> 22         0.51709
      21 -> 22        -0.11806
      21 -> 23        -0.45842
 This state for optimization and/or second-order correction.
 Total Energy, E(TD-HF/TD-DFT) =  -232.000550873
 Copying the excited state density for this state as the 1-particle RhoCI density.

 The electronic state is 1-A.
 Alpha  occ. eigenvalues --  -10.22267 -10.21748 -10.21567 -10.20843 -10.20458
 Alpha  occ. eigenvalues --  -10.20172  -0.82503  -0.73603  -0.71521  -0.59091
 Alpha  occ. eigenvalues --   -0.57976  -0.49438  -0.45369  -0.42664  -0.41576
 Alpha  occ. eigenvalues --   -0.38761  -0.36221  -0.33593  -0.31445  -0.24600
 Alpha  occ. eigenvalues --   -0.23366
 Alpha virt. eigenvalues --   -0.03079  -0.01436   0.07408   0.09235   0.11848
 Alpha virt. eigenvalues --    0.12605   0.14141   0.16242   0.17738   0.25618
 Alpha virt. eigenvalues --    0.27221   0.28845   0.29821   0.43640   0.47212

 Mulliken charges:
               1
     1  C   -0.095907
     2  C   -0.095917
     3  C   -0.098856
     4  C   -0.099260
     5  C   -0.085647
     6  C   -0.088947
     7  H    0.086197
     8  H    0.099517
     9  H    0.093949
    10  H    0.089611
    11  H    0.096088
    12  H    0.099173
 Sum of Mulliken charges =  -0.00000

 Dipole moment (field-independent basis, Debye):
    X=              0.2624    Y=              0.1849    Z=              0.3795  Tot=              0.4970
 Quadrupole moment (field-independent basis, Debye-Ang):
   XX=            -31.3595   YY=            -32.7388   ZZ=            -39.1188
   XY=              0.4510   XZ=             -0.5046   YZ=              0.5077

 Normal termination of Gaussian 16 at Fri Nov 10 20:51:04 2023.
