 Gaussian 16, Revision B.01,
 Gaussian 16:  EM64L-G16RevB.01 20-Dec-2017

 ---------------------------------
 # TD=(NStates=1) B3LYP/6-31G(d,p)
 ---------------------------------

 -------
 EMISPCT
 -------
 Symbolic Z-matrix:
 Charge =  0 Multiplicity = 1

                         Standard orientation:
 ---------------------------------------------------------------------
 Center     Atomic      Atomic             Coordinates (Angstroms)
 Number     Number       Type             X           Y           Z
 ---------------------------------------------------------------------
      1          6           0       -0.290228   -1.371299   -0.015248
      2          6           0        1.041100   -0.909256   -0.019179
      3          6           0        1.399604    0.453725   -0.001645
      4          6           0        0.276145    1.385026   -0.033746
      5          6           0       -1.082391    0.924968   -0.007684
      6          6           0       -1.388776   -0.458044   -0.037674
      7          1           0       -0.417014   -2.474960    0.129005
      8          1           0       -2.270167   -0.889505    0.115387
      9          1           0       -1.921133    1.609526    0.041064
     10          1           0        0.368141    2.593211    0.328265
     11          1           0        2.528877    0.763100   -0.145517
     12          1           0        1.978567   -1.752086    0.222854
 ---------------------------------------------------------------------

 SCF Done:  E(RB3LYP) =  -232.193252461     A.U. after   13 cycles

 Excitation energies and oscillator strengths:

 Excited State   1:      Singlet-A      5.1393 eV  241.25 nm  f=0.0031  <S**2>=0.000
      20 -> 22         0.41864
      20 -> 23         0.24570
      21 -> 22        -0.34649
      21 -> 23         0.37936
 This state for optimization and/or second-order correction.
 Total Energy, E(TD-HF/TD-DFT) =  -232.004385587
 Copying the excited state density for this state as the 1-particle RhoCI density.

 The electronic state is 1-A.
 Alpha  occ. eigenvalues --  -10.21809 -10.21331 -10.21031 -10.20001 -10.19824
 Alpha  occ. eigenvalues --  -10.19054  -0.83663  -0.73951  -0.72752  -0.60117
 Alpha  occ. eigenvalues --   -0.58132  -0.50386  -0.45654  -0.43209  -0.40907
 Alpha  occ. eigenvalues --   -0.39772  -0.35881  -0.33877  -0.32327  -0.24928
 Alpha  occ. eigenvalues --   -0.24250
 Alpha virt. eigenvalues --   -0.01728  -0.00382   0.05642   0.10702   0.13114
 Alpha virt. eigenvalues --    0.13420   0.15131   0.16577   0.18825   0.27042
 Alpha virt. eigenvalues --    0.28816   0.29666   0.31270   0.46578   0.49495

 Mulliken charges:
               1
     1  C   -0.093004
     2  C   -0.072465
     3  C   -0.095537
     4  C   -0.097939
     5  C   -0.089417
     6  C   -0.062557
     7  H    0.090654
     8  H    0.086953
     9  H    0.093862
    10  H    0.074822
    11  H    0.101342
    12  H    0.063287
 Sum of Mulliken charges =  -0.00000

 Dipole moment (field-independent basis, Debye):
    X=             -0.2430    Y=             -0.1324    Z=              0.3743  Tot=              0.4655
 Quadrupole moment (field-independent basis, Debye-Ang):
   XX=            -31.3796   YY=            -32.4094   ZZ=            -39.0805
   XY=              0.1080   XZ=             -0.2906   YZ=             -0.0235

 Normal termination of Gaussian 16 at Fri Nov 10 21:10:52 2023.
