 Gaussian 16, Revision B.01,
 Gaussian 16:  EM64L-G16RevB.01 20-Dec-2017

 ---------------------------------
 # TD=(NStates=1) B3LYP/6-31G(d,p)
 ---------------------------------

 -------
 EMISPCT
 -------
 Symbolic Z-matrix:
 Charge =  0 Multiplicity = 1

                         Standard orientation:
 ---------------------------------------------------------------------
 Center     Atomic      Atomic             Coordinates (Angstroms)
 Number     Number       Type             X           Y           Z
 ---------------------------------------------------------------------
      1          6           0        0.833836   -1.100230    0.082620
      2          6           0       -0.545204   -1.269247    0.065640
      3          6           0       -1.388783   -0.160207   -0.124492
      4          6           0       -0.889022    1.125296    0.114115
      5          6           0        0.540545    1.279857   -0.065058
      6          6           0        1.447474    0.137835   -0.107482
      7          1           0        1.382869   -1.901263    0.013424
      8          1           0        2.449017    0.293457   -0.092108
      9          1           0        1.108789    2.351907    0.299938
     10          1           0       -1.547484    1.855439    0.133838
     11          1           0       -2.605860   -0.413604   -0.265090
     12          1           0       -0.780405   -2.265763    0.117945
 ---------------------------------------------------------------------

 SCF Done:  E(RB3LYP) =  -232.176024960     A.U. after   13 cycles

 Excitation energies and oscillator strengths:

 Excited State   1:      Singlet-A      5.1395 eV  241.24 nm  f=0.0004  <S**2>=0.000
      20 -> 22         0.48178
      20 -> 23         0.11406
      21 -> 22         0.15077
      21 -> 23        -0.48139
 This state for optimization and/or second-order correction.
 Total Energy, E(TD-HF/TD-DFT) =  -231.987152413
 Copying the excited state density for this state as the 1-particle RhoCI density.

 The electronic state is 1-A.
 Alpha  occ. eigenvalues --  -10.21441 -10.20843 -10.19041 -10.18874 -10.18351
 Alpha  occ. eigenvalues --  -10.17547  -0.84401  -0.75005  -0.73125  -0.60674
 Alpha  occ. eigenvalues --   -0.59270  -0.52401  -0.46540  -0.43217  -0.42528
 Alpha  occ. eigenvalues --   -0.40529  -0.36090  -0.34146  -0.32349  -0.24879
 Alpha  occ. eigenvalues --   -0.24022
 Alpha virt. eigenvalues --   -0.01353  -0.00577   0.07675   0.11346   0.13667
 Alpha virt. eigenvalues --    0.15108   0.17523   0.18274   0.21182   0.26987
 Alpha virt. eigenvalues --    0.29303   0.31220   0.32212   0.45716   0.47891

 Mulliken charges:
               1
     1  C   -0.066286
     2  C   -0.063911
     3  C   -0.093923
     4  C   -0.066145
     5  C   -0.109282
     6  C   -0.071998
     7  H    0.073808
     8  H    0.089506
     9  H    0.063499
    10  H    0.090309
    11  H    0.069192
    12  H    0.085230
 Sum of Mulliken charges =  -0.00000

 Dipole moment (field-independent basis, Debye):
    X=              0.0867    Y=             -0.3422    Z=              0.1382  Tot=              0.3792
 Quadrupole moment (field-independent basis, Debye-Ang):
   XX=            -31.4709   YY=            -32.1466   ZZ=            -38.5315
   XY=             -0.4044   XZ=              0.2500   YZ=              0.5710

 Normal termination of Gaussian 16 at Fri Nov 10 22:03:19 2023.
