 Gaussian 16, Revision B.01,
 Gaussian 16:  EM64L-G16RevB.01 20-Dec-2017

 ---------------------------------
 # TD=(NStates=1) B3LYP/6-31G(d,p)
 ---------------------------------

 -------
 EMISPCT
 -------
 Symbolic Z-matrix:
 Charge =  0 Multiplicity = 1

                         Standard orientation:
 ---------------------------------------------------------------------
 Center     Atomic      Atomic             Coordinates (Angstroms)
 Number     Number       Type             X           Y           Z
 ---------------------------------------------------------------------
      1          6           0        1.222087   -0.681367   -0.065557
      2          6           0        1.221672    0.711448    0.080477
      3          6           0       -0.012974    1.389248    0.053141
      4          6           0       -1.215649    0.656706   -0.069606
      5          6           0       -1.239288   -0.751671   -0.018716
      6          6           0        0.032846   -1.350021   -0.004825
      7          1           0        2.249296   -1.216158   -0.166793
      8          1           0        0.235953   -2.416068    0.112300
      9          1           0       -2.366499   -1.200938    0.406147
     10          1           0       -2.267193    1.211540   -0.182489
     11          1           0       -0.072258    2.508473   -0.082795
     12          1           0        2.168533    1.267091    0.064152
 ---------------------------------------------------------------------

 SCF Done:  E(RB3LYP) =  -232.208003660     A.U. after   13 cycles

 Excitation energies and oscillator strengths:

 Excited State   1:      Singlet-A      5.3013 eV  233.88 nm  f=0.0037  <S**2>=0.000
      20 -> 22         0.44097
      20 -> 23         0.26699
      21 -> 22         0.34332
      21 -> 23        -0.34041
 This state for optimization and/or second-order correction.
 Total Energy, E(TD-HF/TD-DFT) =  -232.013186122
 Copying the excited state density for this state as the 1-particle RhoCI density.

 The electronic state is 1-A.
 Alpha  occ. eigenvalues --  -10.21137 -10.20232 -10.19744 -10.19551 -10.19485
 Alpha  occ. eigenvalues --  -10.19162  -0.84858  -0.73920  -0.73677  -0.59795
 Alpha  occ. eigenvalues --   -0.58296  -0.50635  -0.44594  -0.43710  -0.40820
 Alpha  occ. eigenvalues --   -0.40495  -0.36387  -0.33473  -0.32652  -0.24748
 Alpha  occ. eigenvalues --   -0.24716
 Alpha virt. eigenvalues --   -0.01258   0.00188   0.05981   0.10504   0.12431
 Alpha virt. eigenvalues --    0.15202   0.16075   0.17112   0.18270   0.28013
 Alpha virt. eigenvalues --    0.29937   0.31050   0.33015   0.46331   0.51251

 Mulliken charges:
               1
     1  C   -0.074845
     2  C   -0.091342
     3  C   -0.079178
     4  C   -0.093585
     5  C   -0.083450
     6  C   -0.094207
     7  H    0.087784
     8  H    0.084707
     9  H    0.086665
    10  H    0.078896
    11  H    0.089059
    12  H    0.089496
 Sum of Mulliken charges =  -0.00000

 Dipole moment (field-independent basis, Debye):
    X=              0.2311    Y=              0.1216    Z=              0.1042  Tot=              0.2811
 Quadrupole moment (field-independent basis, Debye-Ang):
   XX=            -31.3378   YY=            -32.6767   ZZ=            -38.7889
   XY=             -0.3833   XZ=             -0.6394   YZ=             -0.7217

 Normal termination of Gaussian 16 at Fri Nov 10 21:43:18 2023.
