 Gaussian 16, Revision B.01,
 Gaussian 16:  EM64L-G16RevB.01 20-Dec-2017

 ---------------------------------
 # TD=(NStates=1) B3LYP/6-31G(d,p)
 ---------------------------------

 -------
 EMISPCT
 -------
 Symbolic Z-matrix:
 Charge =  0 Multiplicity = 1

                         Standard orientation:
 ---------------------------------------------------------------------
 Center     Atomic      Atomic             Coordinates (Angstroms)
 Number     Number       Type             X           Y           Z
 ---------------------------------------------------------------------
      1          6           0       -0.048718   -1.308215   -0.051734
      2          6           0        1.169985   -0.768816    0.077991
      3          6           0        1.352129    0.574380   -0.039390
      4          6           0        0.103640    1.336834    0.012052
      5          6           0       -1.249490    0.773624   -0.070542
      6          6           0       -1.296606   -0.642339   -0.012344
      7          1           0       -0.326961   -2.351993   -0.162012
      8          1           0       -2.324377   -1.167114    0.392209
      9          1           0       -2.150745    1.669057    0.090706
     10          1           0        0.325748    2.372653    0.114380
     11          1           0        2.271662    1.179620    0.010839
     12          1           0        2.019033   -1.495038    0.057680
 ---------------------------------------------------------------------

 SCF Done:  E(RB3LYP) =  -232.183653636     A.U. after   14 cycles

 Excitation energies and oscillator strengths:

 Excited State   1:      Singlet-A      5.1303 eV  241.67 nm  f=0.0078  <S**2>=0.000
      20 -> 22        -0.36851
      20 -> 23        -0.21634
      21 -> 22        -0.36322
      21 -> 23         0.42976
 This state for optimization and/or second-order correction.
 Total Energy, E(TD-HF/TD-DFT) =  -231.995117759
 Copying the excited state density for this state as the 1-particle RhoCI density.

 The electronic state is 1-A.
 Alpha  occ. eigenvalues --  -10.21755 -10.20911 -10.19668 -10.19616 -10.19020
 Alpha  occ. eigenvalues --  -10.18563  -0.84730  -0.74330  -0.73028  -0.59451
 Alpha  occ. eigenvalues --   -0.59078  -0.50644  -0.45544  -0.43912  -0.41248
 Alpha  occ. eigenvalues --   -0.39071  -0.36400  -0.34054  -0.31866  -0.25403
 Alpha  occ. eigenvalues --   -0.23417
 Alpha virt. eigenvalues --   -0.01393  -0.00197   0.06490   0.10589   0.11652
 Alpha virt. eigenvalues --    0.14873   0.16006   0.17585   0.18744   0.26184
 Alpha virt. eigenvalues --    0.29530   0.31057   0.32978   0.45925   0.50276

 Mulliken charges:
               1
     1  C   -0.074643
     2  C   -0.065845
     3  C   -0.092642
     4  C   -0.096238
     5  C   -0.078450
     6  C   -0.115423
     7  H    0.088719
     8  H    0.094073
     9  H    0.079091
    10  H    0.081633
    11  H    0.096937
    12  H    0.082788
 Sum of Mulliken charges =  -0.00000

 Dipole moment (field-independent basis, Debye):
    X=              0.1693    Y=              0.0625    Z=              0.3068  Tot=              0.3559
 Quadrupole moment (field-independent basis, Debye-Ang):
   XX=            -31.8553   YY=            -32.0237   ZZ=            -38.8111
   XY=              0.6771   XZ=             -0.6960   YZ=              0.2620

 Normal termination of Gaussian 16 at Fri Nov 10 22:59:21 2023.
