 Gaussian 16, Revision B.01,
 Gaussian 16:  EM64L-G16RevB.01 20-Dec-2017

 ---------------------------------
 # TD=(NStates=1) B3LYP/6-31G(d,p)
 ---------------------------------

 -------
 EMISPCT
 -------
 Symbolic Z-matrix:
 Charge =  0 Multiplicity = 1

                         Standard orientation:
 ---------------------------------------------------------------------
 Center     Atomic      Atomic             Coordinates (Angstroms)
 Number     Number       Type             X           Y           Z
 ---------------------------------------------------------------------
      1          6           0       -1.467809    0.127528    0.031327
      2          6           0       -0.603040    1.274526   -0.047125
      3          6           0        0.836177    1.142612   -0.027888
      4          6           0        1.440772   -0.197840    0.076781
      5          6           0        0.557735   -1.273946   -0.049319
      6          6           0       -0.822894   -1.084166   -0.004750
      7          1           0       -2.353387    0.133932    0.288413
      8          1           0       -1.598522   -1.942698   -0.047239
      9          1           0        1.092925   -2.223917   -0.152952
     10          1           0        2.695200   -0.271225    0.136679
     11          1           0        1.568474    2.132874    0.008065
     12          1           0       -1.050338    2.238747   -0.107124
 ---------------------------------------------------------------------

 SCF Done:  E(RB3LYP) =  -232.182704912     A.U. after   13 cycles

 Excitation energies and oscillator strengths:

 Excited State   1:      Singlet-A      5.2261 eV  237.24 nm  f=0.0034  <S**2>=0.000
      20 -> 23         0.44539
      21 -> 22         0.54865
 This state for optimization and/or second-order correction.
 Total Energy, E(TD-HF/TD-DFT) =  -231.990649405
 Copying the excited state density for this state as the 1-particle RhoCI density.

 The electronic state is 1-A.
 Alpha  occ. eigenvalues --  -10.21495 -10.21437 -10.19802 -10.19504 -10.19448
 Alpha  occ. eigenvalues --  -10.17711  -0.84073  -0.74585  -0.72663  -0.60144
 Alpha  occ. eigenvalues --   -0.58940  -0.51156  -0.45775  -0.43941  -0.42149
 Alpha  occ. eigenvalues --   -0.39225  -0.36149  -0.34096  -0.32143  -0.24756
 Alpha  occ. eigenvalues --   -0.24218
 Alpha virt. eigenvalues --   -0.01016  -0.00231   0.06494   0.12078   0.12697
 Alpha virt. eigenvalues --    0.14389   0.16309   0.16406   0.20246   0.27208
 Alpha virt. eigenvalues --    0.28824   0.29996   0.32434   0.46844   0.49911

 Mulliken charges:
               1
     1  C   -0.027703
     2  C   -0.102066
     3  C   -0.092255
     4  C   -0.093079
     5  C   -0.079565
     6  C   -0.096061
     7  H    0.070034
     8  H    0.075398
     9  H    0.091762
    10  H    0.086240
    11  H    0.080288
    12  H    0.087008
 Sum of Mulliken charges =  -0.00000

 Dipole moment (field-independent basis, Debye):
    X=             -0.0948    Y=              0.0134    Z=              0.0890  Tot=              0.1307
 Quadrupole moment (field-independent basis, Debye-Ang):
   XX=            -30.7111   YY=            -32.6029   ZZ=            -38.8848
   XY=             -0.1735   XZ=             -0.3255   YZ=              0.1896

 Normal termination of Gaussian 16 at Fri Nov 10 23:06:30 2023.
