 Gaussian 16, Revision B.01,
 Gaussian 16:  EM64L-G16RevB.01 20-Dec-2017

 ---------------------------------
 # TD=(NStates=1) B3LYP/6-31G(d,p)
 ---------------------------------

 -------
 EMISPCT
 -------
 Symbolic Z-matrix:
 Charge =  0 Multiplicity = 1

                         Standard orientation:
 ---------------------------------------------------------------------
 Center     Atomic      Atomic             Coordinates (Angstroms)
 Number     Number       Type             X           Y           Z
 ---------------------------------------------------------------------
      1          6           0        0.150784   -1.391830   -0.006945
      2          6           0        1.350155   -0.610836    0.041438
      3          6           0        1.155542    0.832317   -0.018527
      4          6           0       -0.172404    1.398448   -0.000722
      5          6           0       -1.317311    0.573415   -0.015373
      6          6           0       -1.146584   -0.843700   -0.078452
      7          1           0        0.035393   -2.523238    0.217917
      8          1           0       -1.921066   -1.399808   -0.157715
      9          1           0       -2.339895    0.994390    0.452618
     10          1           0       -0.156351    2.700153    0.025912
     11          1           0        2.014970    1.390817   -0.175606
     12          1           0        2.245850   -0.909194    0.108362
 ---------------------------------------------------------------------

 SCF Done:  E(RB3LYP) =  -232.168517607     A.U. after   13 cycles

 Excitation energies and oscillator strengths:

 Excited State   1:      Singlet-A      5.0231 eV  246.83 nm  f=0.0027  <S**2>=0.000
      20 -> 22         0.49642
      20 -> 23        -0.17571
      21 -> 22        -0.24237
      21 -> 23        -0.40437
 This state for optimization and/or second-order correction.
 Total Energy, E(TD-HF/TD-DFT) =  -231.983921680
 Copying the excited state density for this state as the 1-particle RhoCI density.

 The electronic state is 1-A.
 Alpha  occ. eigenvalues --  -10.21507 -10.20678 -10.20337 -10.19563 -10.19014
 Alpha  occ. eigenvalues --  -10.18476  -0.83505  -0.74396  -0.72945  -0.60716
 Alpha  occ. eigenvalues --   -0.59480  -0.50957  -0.46952  -0.43965  -0.41958
 Alpha  occ. eigenvalues --   -0.39040  -0.37147  -0.33428  -0.32104  -0.24325
 Alpha  occ. eigenvalues --   -0.24256
 Alpha virt. eigenvalues --   -0.01864  -0.00460   0.06994   0.10987   0.12803
 Alpha virt. eigenvalues --    0.14876   0.15989   0.19432   0.19548   0.27384
 Alpha virt. eigenvalues --    0.28629   0.29492   0.31669   0.46826   0.49591

 Mulliken charges:
               1
     1  C   -0.090238
     2  C   -0.057126
     3  C   -0.090563
     4  C   -0.078588
     5  C   -0.105721
     6  C   -0.056784
     7  H    0.079713
     8  H    0.080497
     9  H    0.089045
    10  H    0.066929
    11  H    0.089290
    12  H    0.073546
 Sum of Mulliken charges =  -0.00000

 Dipole moment (field-independent basis, Debye):
    X=              0.1388    Y=             -0.1990    Z=              0.2610  Tot=              0.3563
 Quadrupole moment (field-independent basis, Debye-Ang):
   XX=            -31.0871   YY=            -32.5260   ZZ=            -38.6914
   XY=              0.9534   XZ=             -0.6634   YZ=             -0.1323

 Normal termination of Gaussian 16 at Fri Nov 10 20:17:48 2023.
