 Gaussian 16, Revision B.01,
 Gaussian 16:  EM64L-G16RevB.01 20-Dec-2017

 ---------------------------------
 # TD=(NStates=1) B3LYP/6-31G(d,p)
 ---------------------------------

 -------
 EMISPCT
 -------
 Symbolic Z-matrix:
 Charge =  0 Multiplicity = 1

                         Standard orientation:
 ---------------------------------------------------------------------
 Center     Atomic      Atomic             Coordinates (Angstroms)
 Number     Number       Type             X           Y           Z
 ---------------------------------------------------------------------
      1          6           0        0.676258    1.333758   -0.032837
      2          6           0       -0.777391    1.196708   -0.038379
      3          6           0       -1.395279   -0.049519    0.059064
      4          6           0       -0.697270   -1.275116    0.011974
      5          6           0        0.762484   -1.194705    0.011617
      6          6           0        1.507812    0.031067   -0.088360
      7          1           0        1.126323    2.157854    0.206660
      8          1           0        2.588258    0.073575    0.152439
      9          1           0        1.245048   -2.077370    0.196402
     10          1           0       -1.150061   -2.224010   -0.042655
     11          1           0       -2.518279   -0.253486   -0.305311
     12          1           0       -1.750980    2.070282    0.253995
 ---------------------------------------------------------------------

 SCF Done:  E(RB3LYP) =  -232.158100360     A.U. after   13 cycles

 Excitation energies and oscillator strengths:

 Excited State   1:      Singlet-A      4.8166 eV  257.41 nm  f=0.0019  <S**2>=0.000
      20 -> 22         0.48188
      20 -> 23        -0.15016
      21 -> 22        -0.22074
      21 -> 23        -0.44276
 This state for optimization and/or second-order correction.
 Total Energy, E(TD-HF/TD-DFT) =  -231.981094321
 Copying the excited state density for this state as the 1-particle RhoCI density.

 The electronic state is 1-A.
 Alpha  occ. eigenvalues --  -10.22070 -10.21569 -10.20790 -10.20040 -10.19583
 Alpha  occ. eigenvalues --  -10.19530  -0.82671  -0.73166  -0.73106  -0.61008
 Alpha  occ. eigenvalues --   -0.58376  -0.50391  -0.47228  -0.43183  -0.40870
 Alpha  occ. eigenvalues --   -0.39967  -0.35446  -0.34372  -0.31057  -0.24610
 Alpha  occ. eigenvalues --   -0.23804
 Alpha virt. eigenvalues --   -0.02710  -0.01184   0.05468   0.11576   0.12134
 Alpha virt. eigenvalues --    0.13515   0.16218   0.17876   0.19149   0.25575
 Alpha virt. eigenvalues --    0.27510   0.29200   0.30796   0.44536   0.48068

 Mulliken charges:
               1
     1  C   -0.099037
     2  C   -0.077970
     3  C   -0.079116
     4  C   -0.076915
     5  C   -0.081399
     6  C   -0.108474
     7  H    0.094647
     8  H    0.103225
     9  H    0.084913
    10  H    0.094951
    11  H    0.077923
    12  H    0.067252
 Sum of Mulliken charges =  -0.00000

 Dipole moment (field-independent basis, Debye):
    X=              0.2960    Y=             -0.3790    Z=              0.3241  Tot=              0.5799
 Quadrupole moment (field-independent basis, Debye-Ang):
   XX=            -31.6285   YY=            -32.0798   ZZ=            -39.0013
   XY=              0.7887   XZ=              1.0835   YZ=              0.6437

 Normal termination of Gaussian 16 at Fri Nov 10 21:08:28 2023.
