 Gaussian 16, Revision B.01,
 Gaussian 16:  EM64L-G16RevB.01 20-Dec-2017

 ---------------------------------
 # TD=(NStates=1) B3LYP/6-31G(d,p)
 ---------------------------------

 -------
 EMISPCT
 -------
 Symbolic Z-matrix:
 Charge =  0 Multiplicity = 1

                         Standard orientation:
 ---------------------------------------------------------------------
 Center     Atomic      Atomic             Coordinates (Angstroms)
 Number     Number       Type             X           Y           Z
 ---------------------------------------------------------------------
      1          6           0       -0.017823    1.424838    0.023906
      2          6           0       -1.301349    0.668560    0.002845
      3          6           0       -1.215284   -0.742122   -0.047879
      4          6           0        0.020824   -1.411713   -0.038810
      5          6           0        1.277720   -0.690423    0.005321
      6          6           0        1.231347    0.763479    0.002445
      7          1           0        0.000884    2.478842   -0.107698
      8          1           0        2.182847    1.279101    0.014097
      9          1           0        2.217456   -1.336999    0.038746
     10          1           0        0.023070   -2.439726    0.139872
     11          1           0       -2.157013   -1.337485    0.151594
     12          1           0       -2.239861    1.280554    0.076428
 ---------------------------------------------------------------------

 SCF Done:  E(RB3LYP) =  -232.232933653     A.U. after   13 cycles

 Excitation energies and oscillator strengths:

 Excited State   1:      Singlet-A      5.1234 eV  242.00 nm  f=0.0001  <S**2>=0.000
      20 -> 22         0.49888
      21 -> 23         0.49569
 This state for optimization and/or second-order correction.
 Total Energy, E(TD-HF/TD-DFT) =  -232.044652967
 Copying the excited state density for this state as the 1-particle RhoCI density.

 The electronic state is 1-A.
 Alpha  occ. eigenvalues --  -10.20566 -10.20542 -10.19898 -10.19830 -10.19785
 Alpha  occ. eigenvalues --  -10.19084  -0.82858  -0.73707  -0.72503  -0.59752
 Alpha  occ. eigenvalues --   -0.58897  -0.50680  -0.46525  -0.42933  -0.41612
 Alpha  occ. eigenvalues --   -0.40654  -0.34895  -0.34705  -0.32956  -0.24799
 Alpha  occ. eigenvalues --   -0.23648
 Alpha virt. eigenvalues --   -0.01456  -0.00221   0.08893   0.13301   0.13567
 Alpha virt. eigenvalues --    0.14663   0.16312   0.17432   0.18793   0.26967
 Alpha virt. eigenvalues --    0.28702   0.29143   0.30923   0.47092   0.50037

 Mulliken charges:
               1
     1  C   -0.095435
     2  C   -0.095152
     3  C   -0.087651
     4  C   -0.081216
     5  C   -0.097288
     6  C   -0.085992
     7  H    0.089856
     8  H    0.091687
     9  H    0.090953
    10  H    0.088352
    11  H    0.086084
    12  H    0.095803
 Sum of Mulliken charges =  -0.00000

 Dipole moment (field-independent basis, Debye):
    X=              0.0527    Y=              0.0105    Z=              0.1906  Tot=              0.1980
 Quadrupole moment (field-independent basis, Debye-Ang):
   XX=            -31.4328   YY=            -31.3196   ZZ=            -39.0305
   XY=             -0.2458   XZ=             -0.3162   YZ=             -0.6413

 Normal termination of Gaussian 16 at Fri Nov 10 20:06:56 2023.
