 Gaussian 16, Revision B.01,
 Gaussian 16:  EM64L-G16RevB.01 20-Dec-2017

 ---------------------------------
 # TD=(NStates=1) B3LYP/6-31G(d,p)
 ---------------------------------

 -------
 EMISPCT
 -------
 Symbolic Z-matrix:
 Charge =  0 Multiplicity = 1

                         Standard orientation:
 ---------------------------------------------------------------------
 Center     Atomic      Atomic             Coordinates (Angstroms)
 Number     Number       Type             X           Y           Z
 ---------------------------------------------------------------------
      1          6           0        0.482053    1.290131   -0.005986
      2          6           0        1.435100    0.223724   -0.029162
      3          6           0        0.907332   -1.099535    0.025771
      4          6           0       -0.517465   -1.339612   -0.049055
      5          6           0       -1.397389   -0.243909    0.017540
      6          6           0       -0.932578    1.103257   -0.015490
      7          1           0        0.807358    2.289532   -0.043039
      8          1           0       -1.574202    1.929304    0.142611
      9          1           0       -2.554828   -0.381253    0.156325
     10          1           0       -0.929679   -2.243863   -0.211474
     11          1           0        1.768435   -1.836692    0.319060
     12          1           0        2.620602    0.638639   -0.025190
 ---------------------------------------------------------------------

 SCF Done:  E(RB3LYP) =  -232.206164335     A.U. after   13 cycles

 Excitation energies and oscillator strengths:

 Excited State   1:      Singlet-A      5.1290 eV  241.73 nm  f=0.0004  <S**2>=0.000
      20 -> 22         0.51911
      21 -> 23        -0.47735
 This state for optimization and/or second-order correction.
 Total Energy, E(TD-HF/TD-DFT) =  -232.017678113
 Copying the excited state density for this state as the 1-particle RhoCI density.

 The electronic state is 1-A.
 Alpha  occ. eigenvalues --  -10.21096 -10.21051 -10.20281 -10.19456 -10.19116
 Alpha  occ. eigenvalues --  -10.18967  -0.83463  -0.73613  -0.73157  -0.60340
 Alpha  occ. eigenvalues --   -0.58299  -0.50729  -0.46025  -0.43450  -0.41506
 Alpha  occ. eigenvalues --   -0.40271  -0.35965  -0.33415  -0.32786  -0.24492
 Alpha  occ. eigenvalues --   -0.24065
 Alpha virt. eigenvalues --   -0.01288  -0.00350   0.07185   0.11053   0.12855
 Alpha virt. eigenvalues --    0.14827   0.16089   0.17752   0.19261   0.27823
 Alpha virt. eigenvalues --    0.28243   0.30514   0.31257   0.46273   0.49561

 Mulliken charges:
               1
     1  C   -0.082661
     2  C   -0.081135
     3  C   -0.112866
     4  C   -0.075743
     5  C   -0.096110
     6  C   -0.076651
     7  H    0.080186
     8  H    0.090927
     9  H    0.082313
    10  H    0.092239
    11  H    0.093020
    12  H    0.086480
 Sum of Mulliken charges =  -0.00000

 Dipole moment (field-independent basis, Debye):
    X=             -0.0727    Y=              0.1626    Z=              0.1944  Tot=              0.2636
 Quadrupole moment (field-independent basis, Debye-Ang):
   XX=            -31.3500   YY=            -31.9270   ZZ=            -38.9239
   XY=              0.2629   XZ=              0.0804   YZ=              0.0904

 Normal termination of Gaussian 16 at Fri Nov 10 21:38:07 2023.
