 Gaussian 16, Revision B.01,
 Gaussian 16:  EM64L-G16RevB.01 20-Dec-2017

 ---------------------------------
 # TD=(NStates=1) B3LYP/6-31G(d,p)
 ---------------------------------

 -------
 EMISPCT
 -------
 Symbolic Z-matrix:
 Charge =  0 Multiplicity = 1

                         Standard orientation:
 ---------------------------------------------------------------------
 Center     Atomic      Atomic             Coordinates (Angstroms)
 Number     Number       Type             X           Y           Z
 ---------------------------------------------------------------------
      1          6           0       -1.157885   -0.837682    0.030370
      2          6           0       -1.342316    0.492606   -0.067422
      3          6           0       -0.227251    1.415158   -0.007071
      4          6           0        1.128906    0.862501   -0.011428
      5          6           0        1.350054   -0.523408    0.015068
      6          6           0        0.192032   -1.402032   -0.010553
      7          1           0       -1.956069   -1.501383    0.028004
      8          1           0        0.574568   -2.462771    0.111806
      9          1           0        2.405649   -0.864286   -0.113938
     10          1           0        1.947578    1.581900    0.005529
     11          1           0       -0.277506    2.460630    0.253625
     12          1           0       -2.355464    0.743049    0.021187
 ---------------------------------------------------------------------

 SCF Done:  E(RB3LYP) =  -232.222882303     A.U. after   13 cycles

 Excitation energies and oscillator strengths:

 Excited State   1:      Singlet-A      5.1793 eV  239.39 nm  f=0.0006  <S**2>=0.000
      20 -> 22         0.49602
      21 -> 23         0.49397
 This state for optimization and/or second-order correction.
 Total Energy, E(TD-HF/TD-DFT) =  -232.032547826
 Copying the excited state density for this state as the 1-particle RhoCI density.

 The electronic state is 1-A.
 Alpha  occ. eigenvalues --  -10.20460 -10.19981 -10.19673 -10.19420 -10.19030
 Alpha  occ. eigenvalues --  -10.18903  -0.83400  -0.74739  -0.72148  -0.60325
 Alpha  occ. eigenvalues --   -0.58857  -0.51243  -0.46689  -0.42834  -0.42367
 Alpha  occ. eigenvalues --   -0.40538  -0.35448  -0.33626  -0.33308  -0.25357
 Alpha  occ. eigenvalues --   -0.23272
 Alpha virt. eigenvalues --   -0.01821   0.00406   0.09320   0.13153   0.14368
 Alpha virt. eigenvalues --    0.14635   0.16165   0.18555   0.18944   0.27087
 Alpha virt. eigenvalues --    0.28853   0.29802   0.30976   0.46226   0.49764

 Mulliken charges:
               1
     1  C   -0.078978
     2  C   -0.077757
     3  C   -0.100586
     4  C   -0.087046
     5  C   -0.089021
     6  C   -0.104372
     7  H    0.090442
     8  H    0.090109
     9  H    0.091070
    10  H    0.084729
    11  H    0.094594
    12  H    0.086818
 Sum of Mulliken charges =  -0.00000

 Dipole moment (field-independent basis, Debye):
    X=              0.0134    Y=              0.0163    Z=              0.1980  Tot=              0.1991
 Quadrupole moment (field-independent basis, Debye-Ang):
   XX=            -30.9147   YY=            -31.9968   ZZ=            -38.8135
   XY=              0.1846   XZ=             -0.3072   YZ=              0.3873

 Normal termination of Gaussian 16 at Fri Nov 10 21:13:42 2023.
