 Gaussian 16, Revision B.01,
 Gaussian 16:  EM64L-G16RevB.01 20-Dec-2017

 ---------------------------------
 # TD=(NStates=1) B3LYP/6-31G(d,p)
 ---------------------------------

 -------
 EMISPCT
 -------
 Symbolic Z-matrix:
 Charge =  0 Multiplicity = 1

                         Standard orientation:
 ---------------------------------------------------------------------
 Center     Atomic      Atomic             Coordinates (Angstroms)
 Number     Number       Type             X           Y           Z
 ---------------------------------------------------------------------
      1          6           0       -1.402608   -0.430295    0.014918
      2          6           0       -0.294288   -1.308138   -0.085071
      3          6           0        1.085187   -0.991644   -0.010868
      4          6           0        1.416920    0.446379    0.049517
      5          6           0        0.290105    1.388449    0.006850
      6          6           0       -1.104985    0.863943   -0.060701
      7          1           0       -2.426517   -0.811591    0.156894
      8          1           0       -1.810781    1.718627    0.272741
      9          1           0        0.425784    2.526829   -0.111666
     10          1           0        2.580496    0.751673   -0.103951
     11          1           0        1.947303   -1.712698    0.229266
     12          1           0       -0.658275   -2.285002    0.068853
 ---------------------------------------------------------------------

 SCF Done:  E(RB3LYP) =  -232.196790455     A.U. after   14 cycles

 Excitation energies and oscillator strengths:

 Excited State   1:      Singlet-A      5.0600 eV  245.03 nm  f=0.0019  <S**2>=0.000
      20 -> 22         0.46165
      21 -> 23         0.53473
 This state for optimization and/or second-order correction.
 Total Energy, E(TD-HF/TD-DFT) =  -232.010837635
 Copying the excited state density for this state as the 1-particle RhoCI density.

 The electronic state is 1-A.
 Alpha  occ. eigenvalues --  -10.21770 -10.21178 -10.21039 -10.19792 -10.19320
 Alpha  occ. eigenvalues --  -10.19231  -0.83635  -0.73898  -0.72230  -0.59495
 Alpha  occ. eigenvalues --   -0.58378  -0.50529  -0.45145  -0.43136  -0.41971
 Alpha  occ. eigenvalues --   -0.39777  -0.35469  -0.33536  -0.32258  -0.25168
 Alpha  occ. eigenvalues --   -0.23679
 Alpha virt. eigenvalues --   -0.01551  -0.00957   0.07640   0.10937   0.12581
 Alpha virt. eigenvalues --    0.14280   0.15165   0.16458   0.18842   0.25929
 Alpha virt. eigenvalues --    0.26986   0.29545   0.32956   0.45851   0.46716

 Mulliken charges:
               1
     1  C   -0.072383
     2  C   -0.087417
     3  C   -0.092750
     4  C   -0.098247
     5  C   -0.105243
     6  C   -0.086280
     7  H    0.101066
     8  H    0.078314
     9  H    0.093145
    10  H    0.088091
    11  H    0.101571
    12  H    0.080130
 Sum of Mulliken charges =  -0.00000

 Dipole moment (field-independent basis, Debye):
    X=             -0.0734    Y=             -0.1377    Z=              0.3023  Tot=              0.3402
 Quadrupole moment (field-independent basis, Debye-Ang):
   XX=            -31.1879   YY=            -32.3661   ZZ=            -39.0522
   XY=              0.2525   XZ=             -0.6029   YZ=             -0.5176

 Normal termination of Gaussian 16 at Fri Nov 10 20:12:14 2023.
