 Gaussian 16, Revision B.01,
 Gaussian 16:  EM64L-G16RevB.01 20-Dec-2017

 ---------------------------------
 # TD=(NStates=1) B3LYP/6-31G(d,p)
 ---------------------------------

 -------
 EMISPCT
 -------
 Symbolic Z-matrix:
 Charge =  0 Multiplicity = 1

                         Standard orientation:
 ---------------------------------------------------------------------
 Center     Atomic      Atomic             Coordinates (Angstroms)
 Number     Number       Type             X           Y           Z
 ---------------------------------------------------------------------
      1          6           0        1.107445   -0.954890    0.065156
      2          6           0       -0.301497   -1.376917   -0.048940
      3          6           0       -1.375640   -0.496200    0.013016
      4          6           0       -1.109202    0.912485    0.052686
      5          6           0        0.307077    1.386681   -0.111992
      6          6           0        1.396656    0.497494   -0.014860
      7          1           0        2.021408   -1.673101    0.107561
      8          1           0        2.334082    0.838609    0.118670
      9          1           0        0.305081    2.577126    0.016438
     10          1           0       -2.023417    1.705702    0.220405
     11          1           0       -2.334013   -0.915598   -0.067235
     12          1           0       -0.452174   -2.344664   -0.126243
 ---------------------------------------------------------------------

 SCF Done:  E(RB3LYP) =  -232.192920012     A.U. after   14 cycles

 Excitation energies and oscillator strengths:

 Excited State   1:      Singlet-A      5.0045 eV  247.74 nm  f=0.0004  <S**2>=0.000
      20 -> 22         0.48665
      21 -> 23         0.51099
 This state for optimization and/or second-order correction.
 Total Energy, E(TD-HF/TD-DFT) =  -232.009007327
 Copying the excited state density for this state as the 1-particle RhoCI density.

 The electronic state is 1-A.
 Alpha  occ. eigenvalues --  -10.21539 -10.21263 -10.21211 -10.19735 -10.19239
 Alpha  occ. eigenvalues --  -10.18793  -0.82606  -0.74350  -0.71569  -0.59663
 Alpha  occ. eigenvalues --   -0.59080  -0.50674  -0.46971  -0.43354  -0.41347
 Alpha  occ. eigenvalues --   -0.39631  -0.34966  -0.34190  -0.32845  -0.25032
 Alpha  occ. eigenvalues --   -0.23161
 Alpha virt. eigenvalues --   -0.01947  -0.00372   0.07635   0.12228   0.12771
 Alpha virt. eigenvalues --    0.14240   0.15601   0.17704   0.19346   0.25309
 Alpha virt. eigenvalues --    0.27936   0.29572   0.30785   0.46525   0.49082

 Mulliken charges:
               1
     1  C   -0.106869
     2  C   -0.072934
     3  C   -0.066959
     4  C   -0.106971
     5  C   -0.089925
     6  C   -0.081158
     7  H    0.092612
     8  H    0.092906
     9  H    0.084164
    10  H    0.084891
    11  H    0.091097
    12  H    0.079145
 Sum of Mulliken charges =  -0.00000

 Dipole moment (field-independent basis, Debye):
    X=             -0.0167    Y=             -0.1725    Z=              0.1546  Tot=              0.2323
 Quadrupole moment (field-independent basis, Debye-Ang):
   XX=            -31.0204   YY=            -31.7006   ZZ=            -39.1586
   XY=             -0.1035   XZ=              0.2569   YZ=              0.6168

 Normal termination of Gaussian 16 at Fri Nov 10 21:32:24 2023.
