 Gaussian 16, Revision B.01,
 Gaussian 16:  EM64L-G16RevB.01 20-Dec-2017

 ---------------------------------
 # TD=(NStates=1) B3LYP/6-31G(d,p)
 ---------------------------------

 -------
 EMISPCT
 -------
 Symbolic Z-matrix:
 Charge =  0 Multiplicity = 1

                         Standard orientation:
 ---------------------------------------------------------------------
 Center     Atomic      Atomic             Coordinates (Angstroms)
 Number     Number       Type             X           Y           Z
 ---------------------------------------------------------------------
      1          6           0       -0.245290   -1.324868    0.052798
      2          6           0       -1.348593   -0.485004   -0.076202
      3          6           0       -1.162707    0.880559   -0.045041
      4          6           0        0.261033    1.417935    0.067413
      5          6           0        1.355153    0.459974    0.069472
      6          6           0        1.156696   -0.929110   -0.132849
      7          1           0       -0.550313   -2.450220    0.420661
      8          1           0        1.870673   -1.628073    0.020833
      9          1           0        2.334762    0.930050   -0.049829
     10          1           0        0.426605    2.423547   -0.142591
     11          1           0       -1.886114    1.576000    0.204241
     12          1           0       -2.293367   -0.968224   -0.066866
 ---------------------------------------------------------------------

 SCF Done:  E(RB3LYP) =  -232.194772573     A.U. after   13 cycles

 Excitation energies and oscillator strengths:

 Excited State   1:      Singlet-A      4.8325 eV  256.56 nm  f=0.0119  <S**2>=0.000
      20 -> 22        -0.40646
      20 -> 23        -0.12935
      21 -> 22        -0.33175
      21 -> 23         0.45527
 This state for optimization and/or second-order correction.
 Total Energy, E(TD-HF/TD-DFT) =  -232.017180475
 Copying the excited state density for this state as the 1-particle RhoCI density.

 The electronic state is 1-A.
 Alpha  occ. eigenvalues --  -10.20874 -10.20021 -10.19680 -10.19651 -10.19473
 Alpha  occ. eigenvalues --  -10.18891  -0.83249  -0.74577  -0.72218  -0.60869
 Alpha  occ. eigenvalues --   -0.58440  -0.51483  -0.47123  -0.43380  -0.42078
 Alpha  occ. eigenvalues --   -0.40410  -0.35170  -0.34958  -0.31996  -0.25396
 Alpha  occ. eigenvalues --   -0.22634
 Alpha virt. eigenvalues --   -0.02626  -0.00356   0.08245   0.12498   0.14034
 Alpha virt. eigenvalues --    0.15789   0.17439   0.17894   0.19106   0.25520
 Alpha virt. eigenvalues --    0.27009   0.31295   0.31687   0.46139   0.46568

 Mulliken charges:
               1
     1  C   -0.098544
     2  C   -0.058494
     3  C   -0.095736
     4  C   -0.108408
     5  C   -0.093360
     6  C   -0.080494
     7  H    0.071410
     8  H    0.095714
     9  H    0.085542
    10  H    0.095371
    11  H    0.095877
    12  H    0.091122
 Sum of Mulliken charges =  -0.00000

 Dipole moment (field-independent basis, Debye):
    X=             -0.1365    Y=              0.0247    Z=              0.1845  Tot=              0.2308
 Quadrupole moment (field-independent basis, Debye-Ang):
   XX=            -31.6145   YY=            -31.7644   ZZ=            -38.6903
   XY=              0.0840   XZ=             -0.4655   YZ=             -0.7957

 Normal termination of Gaussian 16 at Fri Nov 10 20:26:29 2023.
