 Gaussian 16, Revision B.01,
 Gaussian 16:  EM64L-G16RevB.01 20-Dec-2017

 ---------------------------------
 # TD=(NStates=1) B3LYP/6-31G(d,p)
 ---------------------------------

 -------
 EMISPCT
 -------
 Symbolic Z-matrix:
 Charge =  0 Multiplicity = 1

                         Standard orientation:
 ---------------------------------------------------------------------
 Center     Atomic      Atomic             Coordinates (Angstroms)
 Number     Number       Type             X           Y           Z
 ---------------------------------------------------------------------
      1          6           0        1.334199   -0.337491    0.015132
      2          6           0        1.037638    1.025711   -0.038305
      3          6           0       -0.392061    1.296952    0.006559
      4          6           0       -1.438181    0.327033    0.039305
      5          6           0       -1.025241   -1.026395   -0.045259
      6          6           0        0.426094   -1.294018   -0.017879
      7          1           0        2.544395   -0.664725   -0.048438
      8          1           0        1.025776   -2.262862    0.155369
      9          1           0       -1.794788   -1.891856   -0.007083
     10          1           0       -2.429075    0.613557    0.110011
     11          1           0       -0.790635    2.451152   -0.154590
     12          1           0        1.789640    1.803987    0.187412
 ---------------------------------------------------------------------

 SCF Done:  E(RB3LYP) =  -232.193037944     A.U. after   14 cycles

 Excitation energies and oscillator strengths:

 Excited State   1:      Singlet-A      5.2600 eV  235.71 nm  f=0.0081  <S**2>=0.000
      20 -> 22         0.46894
      20 -> 23         0.13385
      21 -> 22         0.29184
      21 -> 23        -0.41970
 This state for optimization and/or second-order correction.
 Total Energy, E(TD-HF/TD-DFT) =  -231.999737470
 Copying the excited state density for this state as the 1-particle RhoCI density.

 The electronic state is 1-A.
 Alpha  occ. eigenvalues --  -10.21427 -10.21218 -10.20022 -10.19744 -10.19722
 Alpha  occ. eigenvalues --  -10.19542  -0.84397  -0.74925  -0.72446  -0.60510
 Alpha  occ. eigenvalues --   -0.57673  -0.50788  -0.44491  -0.43604  -0.42571
 Alpha  occ. eigenvalues --   -0.39068  -0.36006  -0.34116  -0.31898  -0.25715
 Alpha  occ. eigenvalues --   -0.23797
 Alpha virt. eigenvalues --   -0.01979   0.00597   0.05785   0.11415   0.12881
 Alpha virt. eigenvalues --    0.14600   0.14908   0.16647   0.17946   0.26681
 Alpha virt. eigenvalues --    0.28738   0.29924   0.32475   0.46052   0.48557

 Mulliken charges:
               1
     1  C   -0.076046
     2  C   -0.086546
     3  C   -0.106966
     4  C   -0.058609
     5  C   -0.114241
     6  C   -0.067924
     7  H    0.063515
     8  H    0.089485
     9  H    0.092710
    10  H    0.096468
    11  H    0.066198
    12  H    0.101956
 Sum of Mulliken charges =  -0.00000

 Dipole moment (field-independent basis, Debye):
    X=             -0.1432    Y=              0.0026    Z=              0.1833  Tot=              0.2326
 Quadrupole moment (field-independent basis, Debye-Ang):
   XX=            -31.0432   YY=            -32.8431   ZZ=            -39.0357
   XY=              0.0292   XZ=              0.2061   YZ=             -0.1539

 Normal termination of Gaussian 16 at Fri Nov 10 20:46:05 2023.
