 Gaussian 16, Revision B.01,
 Gaussian 16:  EM64L-G16RevB.01 20-Dec-2017

 ---------------------------------
 # TD=(NStates=1) B3LYP/6-31G(d,p)
 ---------------------------------

 -------
 EMISPCT
 -------
 Symbolic Z-matrix:
 Charge =  0 Multiplicity = 1

                         Standard orientation:
 ---------------------------------------------------------------------
 Center     Atomic      Atomic             Coordinates (Angstroms)
 Number     Number       Type             X           Y           Z
 ---------------------------------------------------------------------
      1          6           0        1.389624    0.436530   -0.037379
      2          6           0        0.275297    1.395297    0.061461
      3          6           0       -1.095337    0.918475   -0.037690
      4          6           0       -1.382074   -0.453289   -0.064957
      5          6           0       -0.300774   -1.376997    0.052938
      6          6           0        1.105888   -0.908645   -0.008795
      7          1           0        2.496736    0.624937   -0.129434
      8          1           0        2.020060   -1.604288   -0.138649
      9          1           0       -0.611858   -2.348035    0.276905
     10          1           0       -2.422718   -0.834661    0.039738
     11          1           0       -1.864984    1.592217   -0.165427
     12          1           0        0.427020    2.501601    0.323405
 ---------------------------------------------------------------------

 SCF Done:  E(RB3LYP) =  -232.219307215     A.U. after   13 cycles

 Excitation energies and oscillator strengths:

 Excited State   1:      Singlet-A      5.0959 eV  243.30 nm  f=0.0000  <S**2>=0.000
      20 -> 22         0.50212
      21 -> 23         0.49709
 This state for optimization and/or second-order correction.
 Total Energy, E(TD-HF/TD-DFT) =  -232.032034670
 Copying the excited state density for this state as the 1-particle RhoCI density.

 The electronic state is 1-A.
 Alpha  occ. eigenvalues --  -10.21031 -10.20273 -10.20107 -10.19583 -10.19539
 Alpha  occ. eigenvalues --  -10.19201  -0.83052  -0.74355  -0.72113  -0.60304
 Alpha  occ. eigenvalues --   -0.58065  -0.50925  -0.46104  -0.43036  -0.41779
 Alpha  occ. eigenvalues --   -0.40250  -0.35979  -0.33870  -0.32783  -0.25187
 Alpha  occ. eigenvalues --   -0.23162
 Alpha virt. eigenvalues --   -0.01928   0.00182   0.08559   0.12290   0.13295
 Alpha virt. eigenvalues --    0.14764   0.16474   0.17125   0.19059   0.27316
 Alpha virt. eigenvalues --    0.28873   0.28993   0.30627   0.47304   0.48337

 Mulliken charges:
               1
     1  C   -0.081879
     2  C   -0.108455
     3  C   -0.080935
     4  C   -0.087590
     5  C   -0.092392
     6  C   -0.089423
     7  H    0.093757
     8  H    0.087334
     9  H    0.087510
    10  H    0.091479
    11  H    0.089220
    12  H    0.091374
 Sum of Mulliken charges =  -0.00000

 Dipole moment (field-independent basis, Debye):
    X=             -0.0879    Y=             -0.0123    Z=              0.1352  Tot=              0.1617
 Quadrupole moment (field-independent basis, Debye-Ang):
   XX=            -30.7029   YY=            -32.2862   ZZ=            -38.8960
   XY=             -0.0950   XZ=             -0.3559   YZ=             -0.0375

 Normal termination of Gaussian 16 at Fri Nov 10 22:39:44 2023.
