 Gaussian 16, Revision B.01,
 Gaussian 16:  EM64L-G16RevB.01 20-Dec-2017

 ---------------------------------
 # TD=(NStates=1) B3LYP/6-31G(d,p)
 ---------------------------------

 -------
 EMISPCT
 -------
 Symbolic Z-matrix:
 Charge =  0 Multiplicity = 1

                         Standard orientation:
 ---------------------------------------------------------------------
 Center     Atomic      Atomic             Coordinates (Angstroms)
 Number     Number       Type             X           Y           Z
 ---------------------------------------------------------------------
      1          6           0        1.472050    0.260886    0.026591
      2          6           0        0.536619    1.324308    0.010794
      3          6           0       -0.946151    1.102890   -0.001896
      4          6           0       -1.449121   -0.225411   -0.118678
      5          6           0       -0.505598   -1.297368    0.105639
      6          6           0        0.893358   -1.123152   -0.051464
      7          1           0        2.532872    0.173941   -0.099004
      8          1           0        1.730489   -1.822867   -0.085163
      9          1           0       -0.931316   -2.343181    0.187113
     10          1           0       -2.614139   -0.551030   -0.059848
     11          1           0       -1.702505    1.972124    0.196189
     12          1           0        0.977654    2.318099    0.034806
 ---------------------------------------------------------------------

 SCF Done:  E(RB3LYP) =  -232.200573096     A.U. after   13 cycles

 Excitation energies and oscillator strengths:

 Excited State   1:      Singlet-A      4.9279 eV  251.59 nm  f=0.0030  <S**2>=0.000
      20 -> 22        -0.37475
      20 -> 23         0.25045
      21 -> 22         0.35676
      21 -> 23         0.41107
 This state for optimization and/or second-order correction.
 Total Energy, E(TD-HF/TD-DFT) =  -232.019474429
 Copying the excited state density for this state as the 1-particle RhoCI density.

 The electronic state is 1-A.
 Alpha  occ. eigenvalues --  -10.21649 -10.21384 -10.20633 -10.20379 -10.19983
 Alpha  occ. eigenvalues --  -10.19956  -0.82463  -0.73328  -0.72201  -0.59651
 Alpha  occ. eigenvalues --   -0.58309  -0.49992  -0.45952  -0.43295  -0.41227
 Alpha  occ. eigenvalues --   -0.39769  -0.35220  -0.34095  -0.31977  -0.24604
 Alpha  occ. eigenvalues --   -0.23472
 Alpha virt. eigenvalues --   -0.01672  -0.00931   0.07241   0.11730   0.12121
 Alpha virt. eigenvalues --    0.13500   0.15640   0.16227   0.19069   0.25234
 Alpha virt. eigenvalues --    0.27300   0.29003   0.31714   0.45612   0.47457

 Mulliken charges:
               1
     1  C   -0.084164
     2  C   -0.099925
     3  C   -0.098497
     4  C   -0.087595
     5  C   -0.088783
     6  C   -0.089873
     7  H    0.098024
     8  H    0.089551
     9  H    0.083780
    10  H    0.090304
    11  H    0.096766
    12  H    0.090412
 Sum of Mulliken charges =  -0.00000

 Dipole moment (field-independent basis, Debye):
    X=              0.1192    Y=             -0.0666    Z=              0.1067  Tot=              0.1733
 Quadrupole moment (field-independent basis, Debye-Ang):
   XX=            -30.4422   YY=            -32.5695   ZZ=            -39.3281
   XY=             -0.2533   XZ=             -0.6289   YZ=              0.2112

 Normal termination of Gaussian 16 at Fri Nov 10 22:45:00 2023.
