 Gaussian 16, Revision B.01,
 Gaussian 16:  EM64L-G16RevB.01 20-Dec-2017

 ---------------------------------
 # TD=(NStates=1) B3LYP/6-31G(d,p)
 ---------------------------------

 -------
 EMISPCT
 -------
 Symbolic Z-matrix:
 Charge =  0 Multiplicity = 1

                         Standard orientation:
 ---------------------------------------------------------------------
 Center     Atomic      Atomic             Coordinates (Angstroms)
 Number     Number       Type             X           Y           Z
 ---------------------------------------------------------------------
      1          6           0       -0.721925    1.158108   -0.002153
      2          6           0       -1.510755   -0.035918    0.038586
      3          6           0       -0.732463   -1.247086   -0.072110
      4          6           0        0.774843   -1.213839   -0.014322
      5          6           0        1.465887    0.053690   -0.007499
      6          6           0        0.690685    1.242500    0.003325
      7          1           0       -1.600789    2.150977    0.007349
      8          1           0        1.343663    2.300472    0.074660
      9          1           0        2.674045   -0.031109   -0.030845
     10          1           0        1.405535   -2.016898    0.111330
     11          1           0       -1.147399   -2.119893    0.287983
     12          1           0       -2.472683   -0.028284   -0.125437
 ---------------------------------------------------------------------

 SCF Done:  E(RB3LYP) =  -232.160874270     A.U. after   13 cycles

 Excitation energies and oscillator strengths:

 Excited State   1:      Singlet-A      4.9860 eV  248.66 nm  f=0.0035  <S**2>=0.000
      20 -> 22        -0.35028
      20 -> 23         0.29042
      21 -> 22         0.38622
      21 -> 23         0.37876
 This state for optimization and/or second-order correction.
 Total Energy, E(TD-HF/TD-DFT) =  -231.977640719
 Copying the excited state density for this state as the 1-particle RhoCI density.

 The electronic state is 1-A.
 Alpha  occ. eigenvalues --  -10.22041 -10.21843 -10.21325 -10.19993 -10.19965
 Alpha  occ. eigenvalues --  -10.19342  -0.83083  -0.74264  -0.72290  -0.60176
 Alpha  occ. eigenvalues --   -0.58885  -0.50501  -0.45730  -0.43503  -0.42038
 Alpha  occ. eigenvalues --   -0.39298  -0.35658  -0.33733  -0.31411  -0.25038
 Alpha  occ. eigenvalues --   -0.23931
 Alpha virt. eigenvalues --   -0.01961  -0.01159   0.04974   0.10591   0.12274
 Alpha virt. eigenvalues --    0.12950   0.15698   0.17842   0.18792   0.26340
 Alpha virt. eigenvalues --    0.26937   0.29440   0.30685   0.46644   0.47093

 Mulliken charges:
               1
     1  C   -0.075309
     2  C   -0.063034
     3  C   -0.110132
     4  C   -0.088424
     5  C   -0.084938
     6  C   -0.090723
     7  H    0.053966
     8  H    0.086832
     9  H    0.090010
    10  H    0.090907
    11  H    0.095366
    12  H    0.095480
 Sum of Mulliken charges =  -0.00000

 Dipole moment (field-independent basis, Debye):
    X=              0.1205    Y=             -0.2471    Z=              0.2084  Tot=              0.3450
 Quadrupole moment (field-independent basis, Debye-Ang):
   XX=            -30.3889   YY=            -33.2734   ZZ=            -39.1990
   XY=             -0.1963   XZ=              0.1447   YZ=             -0.5957

 Normal termination of Gaussian 16 at Fri Nov 10 20:21:18 2023.
