 Gaussian 16, Revision B.01,
 Gaussian 16:  EM64L-G16RevB.01 20-Dec-2017

 ---------------------------------
 # TD=(NStates=1) B3LYP/6-31G(d,p)
 ---------------------------------

 -------
 EMISPCT
 -------
 Symbolic Z-matrix:
 Charge =  0 Multiplicity = 1

                         Standard orientation:
 ---------------------------------------------------------------------
 Center     Atomic      Atomic             Coordinates (Angstroms)
 Number     Number       Type             X           Y           Z
 ---------------------------------------------------------------------
      1          6           0        1.297172   -0.633567    0.081532
      2          6           0        1.275860    0.777641   -0.088835
      3          6           0       -0.088122    1.334561    0.001281
      4          6           0       -1.288770    0.590630   -0.047039
      5          6           0       -1.257406   -0.776374   -0.047346
      6          6           0        0.095522   -1.337073    0.012831
      7          1           0        2.224006   -1.148692    0.362473
      8          1           0        0.099096   -2.310189   -0.181217
      9          1           0       -2.030605   -1.223547    0.090767
     10          1           0       -2.398213    1.110343    0.154089
     11          1           0       -0.278422    2.538802    0.461089
     12          1           0        2.178604    1.298379   -0.361740
 ---------------------------------------------------------------------

 SCF Done:  E(RB3LYP) =  -232.143031917     A.U. after   14 cycles

 Excitation energies and oscillator strengths:

 Excited State   1:      Singlet-A      4.7391 eV  261.62 nm  f=0.0196  <S**2>=0.000
      20 -> 22        -0.33629
      20 -> 23        -0.15732
      21 -> 22         0.48087
      21 -> 23        -0.35866
 This state for optimization and/or second-order correction.
 Total Energy, E(TD-HF/TD-DFT) =  -231.968873073
 Copying the excited state density for this state as the 1-particle RhoCI density.

 The electronic state is 1-A.
 Alpha  occ. eigenvalues --  -10.21683 -10.20736 -10.20096 -10.19818 -10.18364
 Alpha  occ. eigenvalues --  -10.17603  -0.84054  -0.75236  -0.72412  -0.61656
 Alpha  occ. eigenvalues --   -0.58264  -0.51032  -0.48040  -0.43637  -0.41750
 Alpha  occ. eigenvalues --   -0.39142  -0.36876  -0.33976  -0.32115  -0.25203
 Alpha  occ. eigenvalues --   -0.22436
 Alpha virt. eigenvalues --   -0.02534   0.00022   0.06357   0.11069   0.12923
 Alpha virt. eigenvalues --    0.15212   0.16197   0.18031   0.20465   0.26840
 Alpha virt. eigenvalues --    0.28558   0.30071   0.32792   0.47465   0.49318

 Mulliken charges:
               1
     1  C   -0.084058
     2  C   -0.101800
     3  C   -0.094011
     4  C   -0.077954
     5  C   -0.022781
     6  C   -0.096729
     7  H    0.097473
     8  H    0.082132
     9  H    0.057707
    10  H    0.070176
    11  H    0.062267
    12  H    0.107579
 Sum of Mulliken charges =  -0.00000

 Dipole moment (field-independent basis, Debye):
    X=              0.1883    Y=             -0.3614    Z=              0.2264  Tot=              0.4662
 Quadrupole moment (field-independent basis, Debye-Ang):
   XX=            -30.6057   YY=            -33.3273   ZZ=            -38.3924
   XY=              0.4556   XZ=             -0.5935   YZ=              0.4181

 Normal termination of Gaussian 16 at Fri Nov 10 19:40:43 2023.
