 Gaussian 16, Revision B.01,
 Gaussian 16:  EM64L-G16RevB.01 20-Dec-2017

 ---------------------------------
 # TD=(NStates=1) B3LYP/6-31G(d,p)
 ---------------------------------

 -------
 EMISPCT
 -------
 Symbolic Z-matrix:
 Charge =  0 Multiplicity = 1

                         Standard orientation:
 ---------------------------------------------------------------------
 Center     Atomic      Atomic             Coordinates (Angstroms)
 Number     Number       Type             X           Y           Z
 ---------------------------------------------------------------------
      1          6           0       -1.196707    0.800613   -0.001021
      2          6           0        0.072512    1.453355    0.044188
      3          6           0        1.353064    0.616994   -0.081044
      4          6           0        1.224400   -0.833338    0.085421
      5          6           0       -0.116008   -1.400781   -0.079960
      6          6           0       -1.333362   -0.630457   -0.013820
      7          1           0       -2.076378    1.288332    0.249876
      8          1           0       -2.369250   -1.013902   -0.078612
      9          1           0       -0.157041   -2.442917    0.100714
     10          1           0        2.045773   -1.594553    0.141629
     11          1           0        2.198629    1.134570   -0.031176
     12          1           0        0.334876    2.590149   -0.105013
 ---------------------------------------------------------------------

 SCF Done:  E(RB3LYP) =  -232.199307490     A.U. after   13 cycles

 Excitation energies and oscillator strengths:

 Excited State   1:      Singlet-A      4.8769 eV  254.23 nm  f=0.0004  <S**2>=0.000
      20 -> 22         0.48066
      20 -> 23         0.13112
      21 -> 22        -0.17196
      21 -> 23         0.47107
 This state for optimization and/or second-order correction.
 Total Energy, E(TD-HF/TD-DFT) =  -232.020083187
 Copying the excited state density for this state as the 1-particle RhoCI density.

 The electronic state is 1-A.
 Alpha  occ. eigenvalues --  -10.21427 -10.20963 -10.20342 -10.20129 -10.19730
 Alpha  occ. eigenvalues --  -10.19434  -0.82044  -0.73326  -0.72256  -0.60053
 Alpha  occ. eigenvalues --   -0.58925  -0.50812  -0.47291  -0.42188  -0.42023
 Alpha  occ. eigenvalues --   -0.39997  -0.35082  -0.34081  -0.32495  -0.24381
 Alpha  occ. eigenvalues --   -0.23633
 Alpha virt. eigenvalues --   -0.02006  -0.01123   0.08816   0.12013   0.13070
 Alpha virt. eigenvalues --    0.13746   0.17656   0.18093   0.18454   0.25136
 Alpha virt. eigenvalues --    0.27337   0.28927   0.30199   0.43363   0.46465

 Mulliken charges:
               1
     1  C   -0.080669
     2  C   -0.106629
     3  C   -0.086692
     4  C   -0.093025
     5  C   -0.093295
     6  C   -0.089794
     7  H    0.089503
     8  H    0.098473
     9  H    0.086213
    10  H    0.095790
    11  H    0.088207
    12  H    0.091919
 Sum of Mulliken charges =  -0.00000

 Dipole moment (field-independent basis, Debye):
    X=             -0.0044    Y=             -0.0527    Z=              0.1710  Tot=              0.1790
 Quadrupole moment (field-independent basis, Debye-Ang):
   XX=            -30.9282   YY=            -31.6855   ZZ=            -39.1499
   XY=              0.3363   XZ=             -0.1609   YZ=             -0.3439

 Normal termination of Gaussian 16 at Fri Nov 10 22:41:37 2023.
