 Gaussian 16, Revision B.01,
 Gaussian 16:  EM64L-G16RevB.01 20-Dec-2017

 ---------------------------------
 # TD=(NStates=1) B3LYP/6-31G(d,p)
 ---------------------------------

 -------
 EMISPCT
 -------
 Symbolic Z-matrix:
 Charge =  0 Multiplicity = 1

                         Standard orientation:
 ---------------------------------------------------------------------
 Center     Atomic      Atomic             Coordinates (Angstroms)
 Number     Number       Type             X           Y           Z
 ---------------------------------------------------------------------
      1          6           0        0.783189   -1.165036   -0.078963
      2          6           0       -0.733417   -1.188588    0.070359
      3          6           0       -1.419870   -0.057985   -0.043254
      4          6           0       -0.786379    1.186155    0.033536
      5          6           0        0.699768    1.210390    0.092605
      6          6           0        1.461034    0.016959   -0.040301
      7          1           0        1.213567   -2.122279   -0.045805
      8          1           0        2.646982    0.041425    0.096471
      9          1           0        1.232731    2.212206   -0.136657
     10          1           0       -1.339732    2.155771   -0.147858
     11          1           0       -2.598033   -0.019529   -0.170052
     12          1           0       -1.181469   -2.278955    0.200012
 ---------------------------------------------------------------------

 SCF Done:  E(RB3LYP) =  -232.202931879     A.U. after   13 cycles

 Excitation energies and oscillator strengths:

 Excited State   1:      Singlet-A      5.1939 eV  238.71 nm  f=0.0013  <S**2>=0.000
      20 -> 22         0.50636
      21 -> 22         0.10705
      21 -> 23         0.48009
 This state for optimization and/or second-order correction.
 Total Energy, E(TD-HF/TD-DFT) =  -232.012060779
 Copying the excited state density for this state as the 1-particle RhoCI density.

 The electronic state is 1-A.
 Alpha  occ. eigenvalues --  -10.20623 -10.20462 -10.20441 -10.20318 -10.19720
 Alpha  occ. eigenvalues --  -10.19536  -0.84010  -0.74985  -0.71879  -0.60145
 Alpha  occ. eigenvalues --   -0.57690  -0.50163  -0.45051  -0.43646  -0.41857
 Alpha  occ. eigenvalues --   -0.39371  -0.35238  -0.35032  -0.32137  -0.25862
 Alpha  occ. eigenvalues --   -0.23144
 Alpha virt. eigenvalues --   -0.02288   0.00693   0.06835   0.11076   0.13077
 Alpha virt. eigenvalues --    0.14025   0.15691   0.16950   0.17881   0.25740
 Alpha virt. eigenvalues --    0.28504   0.29838   0.33987   0.46603   0.49548

 Mulliken charges:
               1
     1  C   -0.087654
     2  C   -0.095514
     3  C   -0.061412
     4  C   -0.097843
     5  C   -0.109298
     6  C   -0.074020
     7  H    0.088733
     8  H    0.089126
     9  H    0.085806
    10  H    0.095593
    11  H    0.080504
    12  H    0.085980
 Sum of Mulliken charges =  -0.00000

 Dipole moment (field-independent basis, Debye):
    X=              0.0013    Y=             -0.1203    Z=             -0.1361  Tot=              0.1817
 Quadrupole moment (field-independent basis, Debye-Ang):
   XX=            -31.9122   YY=            -31.6871   ZZ=            -39.0194
   XY=             -0.3762   XZ=              0.3360   YZ=             -0.8445

 Normal termination of Gaussian 16 at Fri Nov 10 22:09:06 2023.
