 Gaussian 16, Revision B.01,
 Gaussian 16:  EM64L-G16RevB.01 20-Dec-2017

 ---------------------------------
 # TD=(NStates=1) B3LYP/6-31G(d,p)
 ---------------------------------

 -------
 EMISPCT
 -------
 Symbolic Z-matrix:
 Charge =  0 Multiplicity = 1

                         Standard orientation:
 ---------------------------------------------------------------------
 Center     Atomic      Atomic             Coordinates (Angstroms)
 Number     Number       Type             X           Y           Z
 ---------------------------------------------------------------------
      1          6           0        1.171132    0.860438    0.005003
      2          6           0       -0.197929    1.422154    0.022383
      3          6           0       -1.367807    0.512440   -0.006906
      4          6           0       -1.164048   -0.809105   -0.052671
      5          6           0        0.192856   -1.391956    0.020773
      6          6           0        1.339235   -0.596595    0.053957
      7          1           0        2.129968    1.660435    0.079766
      8          1           0        2.298083   -0.820535   -0.220932
      9          1           0        0.505490   -2.526362   -0.227863
     10          1           0       -1.907719   -1.604934    0.325285
     11          1           0       -2.492079    0.753531   -0.048944
     12          1           0       -0.374377    2.553603   -0.162556
 ---------------------------------------------------------------------

 SCF Done:  E(RB3LYP) =  -232.175993654     A.U. after   13 cycles

 Excitation energies and oscillator strengths:

 Excited State   1:      Singlet-A      5.0205 eV  246.95 nm  f=0.0014  <S**2>=0.000
      20 -> 22        -0.47418
      21 -> 22         0.10858
      21 -> 23         0.51014
 This state for optimization and/or second-order correction.
 Total Energy, E(TD-HF/TD-DFT) =  -231.991492784
 Copying the excited state density for this state as the 1-particle RhoCI density.

 The electronic state is 1-A.
 Alpha  occ. eigenvalues --  -10.22262 -10.21750 -10.20874 -10.20623 -10.19982
 Alpha  occ. eigenvalues --  -10.19308  -0.83198  -0.74577  -0.71579  -0.59727
 Alpha  occ. eigenvalues --   -0.57972  -0.49706  -0.46207  -0.42089  -0.41592
 Alpha  occ. eigenvalues --   -0.39148  -0.36051  -0.32958  -0.31926  -0.25545
 Alpha  occ. eigenvalues --   -0.23650
 Alpha virt. eigenvalues --   -0.02297  -0.00886   0.06933   0.10128   0.12343
 Alpha virt. eigenvalues --    0.13382   0.14297   0.15703   0.17757   0.25919
 Alpha virt. eigenvalues --    0.27573   0.28672   0.31389   0.43957   0.48262

 Mulliken charges:
               1
     1  C   -0.103174
     2  C   -0.103072
     3  C   -0.083998
     4  C   -0.087923
     5  C   -0.104797
     6  C   -0.068629
     7  H    0.084548
     8  H    0.098472
     9  H    0.083468
    10  H    0.094190
    11  H    0.099322
    12  H    0.091592
 Sum of Mulliken charges =  -0.00000

 Dipole moment (field-independent basis, Debye):
    X=              0.0935    Y=              0.0759    Z=             -0.1625  Tot=              0.2023
 Quadrupole moment (field-independent basis, Debye-Ang):
   XX=            -31.3319   YY=            -32.5825   ZZ=            -39.1653
   XY=             -0.0125   XZ=             -0.7871   YZ=             -0.1364

 Normal termination of Gaussian 16 at Fri Nov 10 22:40:04 2023.
