 Gaussian 16, Revision B.01,
 Gaussian 16:  EM64L-G16RevB.01 20-Dec-2017

 ---------------------------------
 # TD=(NStates=1) B3LYP/6-31G(d,p)
 ---------------------------------

 -------
 EMISPCT
 -------
 Symbolic Z-matrix:
 Charge =  0 Multiplicity = 1

                         Standard orientation:
 ---------------------------------------------------------------------
 Center     Atomic      Atomic             Coordinates (Angstroms)
 Number     Number       Type             X           Y           Z
 ---------------------------------------------------------------------
      1          6           0        1.348423    0.468183   -0.065071
      2          6           0        1.182769   -0.951055    0.026840
      3          6           0       -0.271686   -1.434042   -0.110122
      4          6           0       -1.294031   -0.525458    0.054801
      5          6           0       -1.135965    0.911072   -0.037906
      6          6           0        0.169333    1.456105   -0.045315
      7          1           0        2.352962    1.071989    0.192141
      8          1           0        0.441989    2.461821    0.164119
      9          1           0       -1.893240    1.612628    0.137161
     10          1           0       -2.501270   -0.938929    0.229933
     11          1           0       -0.442709   -2.434238    0.004563
     12          1           0        2.049211   -1.322096    0.332722
 ---------------------------------------------------------------------

 SCF Done:  E(RB3LYP) =  -232.167133124     A.U. after   13 cycles

 Excitation energies and oscillator strengths:

 Excited State   1:      Singlet-A      4.9077 eV  252.63 nm  f=0.0033  <S**2>=0.000
      20 -> 22         0.54044
      21 -> 23        -0.43515
 This state for optimization and/or second-order correction.
 Total Energy, E(TD-HF/TD-DFT) =  -231.986778938
 Copying the excited state density for this state as the 1-particle RhoCI density.

 The electronic state is 1-A.
 Alpha  occ. eigenvalues --  -10.21704 -10.21008 -10.20318 -10.20240 -10.20209
 Alpha  occ. eigenvalues --  -10.19667  -0.82455  -0.73660  -0.72736  -0.61063
 Alpha  occ. eigenvalues --   -0.57674  -0.50340  -0.47556  -0.42917  -0.42542
 Alpha  occ. eigenvalues --   -0.39116  -0.34662  -0.33948  -0.32314  -0.24215
 Alpha  occ. eigenvalues --   -0.24008
 Alpha virt. eigenvalues --   -0.02292  -0.00695   0.06975   0.10534   0.11784
 Alpha virt. eigenvalues --    0.15273   0.16605   0.16900   0.19444   0.24970
 Alpha virt. eigenvalues --    0.26844   0.29292   0.30319   0.44160   0.47766

 Mulliken charges:
               1
     1  C   -0.110206
     2  C   -0.083248
     3  C   -0.098395
     4  C   -0.067525
     5  C   -0.081698
     6  C   -0.088182
     7  H    0.074078
     8  H    0.097348
     9  H    0.092644
    10  H    0.068269
    11  H    0.096723
    12  H    0.100191
 Sum of Mulliken charges =  -0.00000

 Dipole moment (field-independent basis, Debye):
    X=              0.0472    Y=              0.1692    Z=              0.6809  Tot=              0.7032
 Quadrupole moment (field-independent basis, Debye-Ang):
   XX=            -32.0416   YY=            -31.3544   ZZ=            -39.0168
   XY=              0.0071   XZ=              0.4748   YZ=              0.1699

 Normal termination of Gaussian 16 at Fri Nov 10 22:08:05 2023.
