 Gaussian 16, Revision B.01,
 Gaussian 16:  EM64L-G16RevB.01 20-Dec-2017

 ---------------------------------
 # TD=(NStates=1) B3LYP/6-31G(d,p)
 ---------------------------------

 -------
 EMISPCT
 -------
 Symbolic Z-matrix:
 Charge =  0 Multiplicity = 1

                         Standard orientation:
 ---------------------------------------------------------------------
 Center     Atomic      Atomic             Coordinates (Angstroms)
 Number     Number       Type             X           Y           Z
 ---------------------------------------------------------------------
      1          6           0       -0.810018   -1.180310   -0.004473
      2          6           0       -1.457725    0.144035    0.022452
      3          6           0       -0.607468    1.287872   -0.038558
      4          6           0        0.858517    1.162421    0.028188
      5          6           0        1.417677   -0.199285   -0.024452
      6          6           0        0.586021   -1.265352   -0.036850
      7          1           0       -1.463170   -2.130009    0.105753
      8          1           0        1.124028   -2.029472    0.233780
      9          1           0        2.489047   -0.113582   -0.056959
     10          1           0        1.453416    2.001038    0.019762
     11          1           0       -1.038863    2.291641    0.193926
     12          1           0       -2.486485    0.284099   -0.174112
 ---------------------------------------------------------------------

 SCF Done:  E(RB3LYP) =  -232.202588055     A.U. after   13 cycles

 Excitation energies and oscillator strengths:

 Excited State   1:      Singlet-A      5.0903 eV  243.57 nm  f=0.0004  <S**2>=0.000
      20 -> 22         0.48816
      21 -> 23         0.49926
 This state for optimization and/or second-order correction.
 Total Energy, E(TD-HF/TD-DFT) =  -232.015523038
 Copying the excited state density for this state as the 1-particle RhoCI density.

 The electronic state is 1-A.
 Alpha  occ. eigenvalues --  -10.20717 -10.20021 -10.19861 -10.19337 -10.19094
 Alpha  occ. eigenvalues --  -10.17630  -0.83459  -0.74516  -0.72563  -0.60625
 Alpha  occ. eigenvalues --   -0.59193  -0.51568  -0.47160  -0.43355  -0.41998
 Alpha  occ. eigenvalues --   -0.40519  -0.35851  -0.34864  -0.31410  -0.25019
 Alpha  occ. eigenvalues --   -0.23563
 Alpha virt. eigenvalues --   -0.01712  -0.00343   0.09767   0.12987   0.14519
 Alpha virt. eigenvalues --    0.15205   0.16927   0.17934   0.19696   0.27218
 Alpha virt. eigenvalues --    0.27668   0.29763   0.31100   0.46524   0.49894

 Mulliken charges:
               1
     1  C   -0.105608
     2  C   -0.091161
     3  C   -0.099755
     4  C   -0.089537
     5  C   -0.092826
     6  C   -0.055798
     7  H    0.088870
     8  H    0.084818
     9  H    0.092604
    10  H    0.085801
    11  H    0.085606
    12  H    0.096987
 Sum of Mulliken charges =  -0.00000

 Dipole moment (field-independent basis, Debye):
    X=              0.1712    Y=              0.0989    Z=              0.1978  Tot=              0.2797
 Quadrupole moment (field-independent basis, Debye-Ang):
   XX=            -30.9165   YY=            -32.0543   ZZ=            -38.6716
   XY=              0.3165   XZ=              0.2564   YZ=             -0.2369

 Normal termination of Gaussian 16 at Fri Nov 10 22:13:56 2023.
