 Gaussian 16, Revision B.01,
 Gaussian 16:  EM64L-G16RevB.01 20-Dec-2017

 ---------------------------------
 # TD=(NStates=1) B3LYP/6-31G(d,p)
 ---------------------------------

 -------
 EMISPCT
 -------
 Symbolic Z-matrix:
 Charge =  0 Multiplicity = 1

                         Standard orientation:
 ---------------------------------------------------------------------
 Center     Atomic      Atomic             Coordinates (Angstroms)
 Number     Number       Type             X           Y           Z
 ---------------------------------------------------------------------
      1          6           0        1.529136   -0.045515    0.046016
      2          6           0        0.742236    1.252139   -0.057672
      3          6           0       -0.659157    1.220116    0.037691
      4          6           0       -1.491720    0.032248   -0.041239
      5          6           0       -0.707077   -1.220790   -0.047586
      6          6           0        0.669071   -1.223339    0.074574
      7          1           0        2.525634   -0.308317   -0.175657
      8          1           0        1.137032   -2.122702    0.086934
      9          1           0       -1.430559   -1.990196   -0.188024
     10          1           0       -2.511446   -0.051279    0.110285
     11          1           0       -1.282797    2.031600    0.270652
     12          1           0        1.067207    2.351738   -0.174896
 ---------------------------------------------------------------------

 SCF Done:  E(RB3LYP) =  -232.189766160     A.U. after   14 cycles

 Excitation energies and oscillator strengths:

 Excited State   1:      Singlet-A      4.9071 eV  252.66 nm  f=0.0059  <S**2>=0.000
      20 -> 22         0.56092
      21 -> 23        -0.41837
 This state for optimization and/or second-order correction.
 Total Energy, E(TD-HF/TD-DFT) =  -232.009431767
 Copying the excited state density for this state as the 1-particle RhoCI density.

 The electronic state is 1-A.
 Alpha  occ. eigenvalues --  -10.21360 -10.21132 -10.19238 -10.19046 -10.18975
 Alpha  occ. eigenvalues --  -10.18884  -0.82629  -0.73950  -0.72669  -0.60883
 Alpha  occ. eigenvalues --   -0.59038  -0.51150  -0.47841  -0.43306  -0.41430
 Alpha  occ. eigenvalues --   -0.40337  -0.36237  -0.34549  -0.30778  -0.24470
 Alpha  occ. eigenvalues --   -0.23420
 Alpha virt. eigenvalues --   -0.02674   0.00216   0.09959   0.12287   0.13636
 Alpha virt. eigenvalues --    0.14359   0.15979   0.18972   0.20333   0.25700
 Alpha virt. eigenvalues --    0.27191   0.28199   0.31882   0.46867   0.48312

 Mulliken charges:
               1
     1  C   -0.101574
     2  C   -0.108399
     3  C   -0.076374
     4  C   -0.100970
     5  C   -0.071004
     6  C   -0.091001
     7  H    0.104963
     8  H    0.084618
     9  H    0.085361
    10  H    0.094620
    11  H    0.085985
    12  H    0.093777
 Sum of Mulliken charges =  -0.00000

 Dipole moment (field-independent basis, Debye):
    X=             -0.2461    Y=             -0.1812    Z=             -0.0568  Tot=              0.3108
 Quadrupole moment (field-independent basis, Debye-Ang):
   XX=            -30.6535   YY=            -32.1282   ZZ=            -38.8193
   XY=             -0.4900   XZ=             -0.8329   YZ=              0.2827

 Normal termination of Gaussian 16 at Fri Nov 10 21:40:31 2023.
