 Gaussian 16, Revision B.01,
 Gaussian 16:  EM64L-G16RevB.01 20-Dec-2017

 ---------------------------------
 # TD=(NStates=1) B3LYP/6-31G(d,p)
 ---------------------------------

 -------
 EMISPCT
 -------
 Symbolic Z-matrix:
 Charge =  0 Multiplicity = 1

                         Standard orientation:
 ---------------------------------------------------------------------
 Center     Atomic      Atomic             Coordinates (Angstroms)
 Number     Number       Type             X           Y           Z
 ---------------------------------------------------------------------
      1          6           0        0.273089    1.360133    0.003333
      2          6           0        1.411863    0.430410   -0.018255
      3          6           0        1.121643   -0.927720   -0.026017
      4          6           0       -0.278036   -1.344210    0.018578
      5          6           0       -1.347355   -0.454333   -0.004966
      6          6           0       -1.179405    0.931726    0.029883
      7          1           0        0.584100    2.431111   -0.049614
      8          1           0       -2.126892    1.533859   -0.068447
      9          1           0       -2.346695   -0.896089   -0.005857
     10          1           0       -0.568954   -2.466340   -0.058052
     11          1           0        1.938284   -1.461848    0.096213
     12          1           0        2.509359    0.883267    0.070422
 ---------------------------------------------------------------------

 SCF Done:  E(RB3LYP) =  -232.206275102     A.U. after   13 cycles

 Excitation energies and oscillator strengths:

 Excited State   1:      Singlet-A      5.1438 eV  241.04 nm  f=0.0042  <S**2>=0.000
      20 -> 22         0.45814
      20 -> 23        -0.11022
      21 -> 22         0.21635
      21 -> 23         0.48046
 This state for optimization and/or second-order correction.
 Total Energy, E(TD-HF/TD-DFT) =  -232.017243260
 Copying the excited state density for this state as the 1-particle RhoCI density.

 The electronic state is 1-A.
 Alpha  occ. eigenvalues --  -10.21058 -10.20938 -10.20649 -10.20235 -10.19101
 Alpha  occ. eigenvalues --  -10.18852  -0.83185  -0.74817  -0.71566  -0.60956
 Alpha  occ. eigenvalues --   -0.57557  -0.50742  -0.46362  -0.43226  -0.41901
 Alpha  occ. eigenvalues --   -0.39245  -0.35058  -0.34377  -0.32996  -0.25469
 Alpha  occ. eigenvalues --   -0.23209
 Alpha virt. eigenvalues --   -0.01856   0.00215   0.07735   0.12084   0.13567
 Alpha virt. eigenvalues --    0.14096   0.15342   0.17966   0.18737   0.26206
 Alpha virt. eigenvalues --    0.28975   0.29365   0.30149   0.46424   0.49361

 Mulliken charges:
               1
     1  C   -0.112615
     2  C   -0.091650
     3  C   -0.067752
     4  C   -0.089725
     5  C   -0.073227
     6  C   -0.092980
     7  H    0.083437
     8  H    0.101013
     9  H    0.087529
    10  H    0.080043
    11  H    0.083050
    12  H    0.092877
 Sum of Mulliken charges =  -0.00000

 Dipole moment (field-independent basis, Debye):
    X=              0.0024    Y=             -0.0148    Z=             -0.0071  Tot=              0.0166
 Quadrupole moment (field-independent basis, Debye-Ang):
   XX=            -30.1351   YY=            -32.7074   ZZ=            -39.1336
   XY=              0.2021   XZ=              0.4724   YZ=             -0.1340

 Normal termination of Gaussian 16 at Fri Nov 10 19:35:42 2023.
