 Gaussian 16, Revision B.01,
 Gaussian 16:  EM64L-G16RevB.01 20-Dec-2017

 ---------------------------------
 # TD=(NStates=1) B3LYP/6-31G(d,p)
 ---------------------------------

 -------
 EMISPCT
 -------
 Symbolic Z-matrix:
 Charge =  0 Multiplicity = 1

                         Standard orientation:
 ---------------------------------------------------------------------
 Center     Atomic      Atomic             Coordinates (Angstroms)
 Number     Number       Type             X           Y           Z
 ---------------------------------------------------------------------
      1          6           0       -0.492614    1.312345    0.114732
      2          6           0        0.913261    1.059088   -0.005183
      3          6           0        1.474860   -0.269252    0.005693
      4          6           0        0.537471   -1.275322   -0.095362
      5          6           0       -0.959716   -1.150785   -0.028923
      6          6           0       -1.430876    0.260903   -0.086395
      7          1           0       -0.858073    2.300766    0.072787
      8          1           0       -2.450426    0.594176    0.108322
      9          1           0       -1.716464   -1.870777    0.094141
     10          1           0        0.795687   -2.314303    0.478222
     11          1           0        2.454545   -0.312237    0.107395
     12          1           0        1.520413    1.980509   -0.288239
 ---------------------------------------------------------------------

 SCF Done:  E(RB3LYP) =  -232.180962166     A.U. after   13 cycles

 Excitation energies and oscillator strengths:

 Excited State   1:      Singlet-A      4.8107 eV  257.72 nm  f=0.0002  <S**2>=0.000
      20 -> 22         0.50566
      21 -> 23        -0.49347
 This state for optimization and/or second-order correction.
 Total Energy, E(TD-HF/TD-DFT) =  -232.004170959
 Copying the excited state density for this state as the 1-particle RhoCI density.

 The electronic state is 1-A.
 Alpha  occ. eigenvalues --  -10.21239 -10.21115 -10.20158 -10.20065 -10.19164
 Alpha  occ. eigenvalues --  -10.19116  -0.83037  -0.74356  -0.72246  -0.60226
 Alpha  occ. eigenvalues --   -0.59006  -0.51554  -0.46155  -0.44048  -0.41831
 Alpha  occ. eigenvalues --   -0.40386  -0.36052  -0.33737  -0.30952  -0.24884
 Alpha  occ. eigenvalues --   -0.23369
 Alpha virt. eigenvalues --   -0.02646  -0.01137   0.09143   0.10971   0.13610
 Alpha virt. eigenvalues --    0.14589   0.15823   0.17955   0.19470   0.25065
 Alpha virt. eigenvalues --    0.26683   0.30179   0.32102   0.43991   0.45679

 Mulliken charges:
               1
     1  C   -0.077400
     2  C   -0.104816
     3  C   -0.045927
     4  C   -0.111982
     5  C   -0.094586
     6  C   -0.095277
     7  H    0.089410
     8  H    0.086902
     9  H    0.108583
    10  H    0.066952
    11  H    0.093909
    12  H    0.084232
 Sum of Mulliken charges =  -0.00000

 Dipole moment (field-independent basis, Debye):
    X=             -0.1911    Y=              0.3476    Z=              0.3296  Tot=              0.5157
 Quadrupole moment (field-independent basis, Debye-Ang):
   XX=            -31.1678   YY=            -32.7084   ZZ=            -38.7114
   XY=              0.6114   XZ=             -0.2909   YZ=             -1.2468

 Normal termination of Gaussian 16 at Fri Nov 10 22:09:54 2023.
