 Gaussian 16, Revision B.01,
 Gaussian 16:  EM64L-G16RevB.01 20-Dec-2017

 ---------------------------------
 # TD=(NStates=1) B3LYP/6-31G(d,p)
 ---------------------------------

 -------
 EMISPCT
 -------
 Symbolic Z-matrix:
 Charge =  0 Multiplicity = 1

                         Standard orientation:
 ---------------------------------------------------------------------
 Center     Atomic      Atomic             Coordinates (Angstroms)
 Number     Number       Type             X           Y           Z
 ---------------------------------------------------------------------
      1          6           0       -0.993839    1.120422   -0.075849
      2          6           0       -1.414584   -0.263628    0.022813
      3          6           0       -0.508760   -1.296340    0.014102
      4          6           0        0.967159   -1.087832   -0.024784
      5          6           0        1.457501    0.285310    0.072296
      6          6           0        0.535073    1.288186   -0.078498
      7          1           0       -1.748575    1.895003   -0.007606
      8          1           0        0.799133    2.285280    0.262246
      9          1           0        2.506300    0.373972    0.187110
     10          1           0        1.679863   -1.927843   -0.308644
     11          1           0       -1.047427   -2.247448    0.053542
     12          1           0       -2.444592   -0.655682    0.232871
 ---------------------------------------------------------------------

 SCF Done:  E(RB3LYP) =  -232.202054722     A.U. after   13 cycles

 Excitation energies and oscillator strengths:

 Excited State   1:      Singlet-A      4.9460 eV  250.67 nm  f=0.0039  <S**2>=0.000
      20 -> 22         0.53607
      21 -> 22        -0.13873
      21 -> 23         0.43666
 This state for optimization and/or second-order correction.
 Total Energy, E(TD-HF/TD-DFT) =  -232.020291555
 Copying the excited state density for this state as the 1-particle RhoCI density.

 The electronic state is 1-A.
 Alpha  occ. eigenvalues --  -10.21172 -10.21031 -10.20155 -10.19636 -10.19527
 Alpha  occ. eigenvalues --  -10.19462  -0.82747  -0.74750  -0.71426  -0.60744
 Alpha  occ. eigenvalues --   -0.57859  -0.50720  -0.46294  -0.43288  -0.41861
 Alpha  occ. eigenvalues --   -0.39980  -0.36050  -0.33419  -0.32180  -0.25336
 Alpha  occ. eigenvalues --   -0.22842
 Alpha virt. eigenvalues --   -0.03069   0.00518   0.08957   0.11722   0.13081
 Alpha virt. eigenvalues --    0.14542   0.16268   0.17324   0.19029   0.25113
 Alpha virt. eigenvalues --    0.27268   0.28997   0.31569   0.46791   0.47121

 Mulliken charges:
               1
     1  C   -0.111576
     2  C   -0.073232
     3  C   -0.078414
     4  C   -0.113177
     5  C   -0.069535
     6  C   -0.110268
     7  H    0.104132
     8  H    0.089014
     9  H    0.099092
    10  H    0.094425
    11  H    0.084995
    12  H    0.084545
 Sum of Mulliken charges =  -0.00000

 Dipole moment (field-independent basis, Debye):
    X=             -0.0757    Y=             -0.0760    Z=              0.2666  Tot=              0.2874
 Quadrupole moment (field-independent basis, Debye-Ang):
   XX=            -30.7380   YY=            -32.3726   ZZ=            -38.9266
   XY=             -0.2349   XZ=             -0.3372   YZ=              0.8498

 Normal termination of Gaussian 16 at Fri Nov 10 22:02:52 2023.
