 Gaussian 16, Revision B.01,
 Gaussian 16:  EM64L-G16RevB.01 20-Dec-2017

 ---------------------------------
 # TD=(NStates=1) B3LYP/6-31G(d,p)
 ---------------------------------

 -------
 EMISPCT
 -------
 Symbolic Z-matrix:
 Charge =  0 Multiplicity = 1

                         Standard orientation:
 ---------------------------------------------------------------------
 Center     Atomic      Atomic             Coordinates (Angstroms)
 Number     Number       Type             X           Y           Z
 ---------------------------------------------------------------------
      1          6           0       -0.090462    1.363340    0.067886
      2          6           0        1.190250    0.697448   -0.078998
      3          6           0        1.331336   -0.663908    0.099939
      4          6           0        0.044327   -1.365175   -0.009286
      5          6           0       -1.172719   -0.734069   -0.081994
      6          6           0       -1.306354    0.642284   -0.092525
      7          1           0        0.137028    2.610807    0.171296
      8          1           0       -2.368591    1.101359    0.242693
      9          1           0       -2.125569   -1.314652    0.275914
     10          1           0       -0.120703   -2.373319    0.043221
     11          1           0        2.372702   -1.018740   -0.027278
     12          1           0        2.126861    1.355024   -0.135976
 ---------------------------------------------------------------------

 SCF Done:  E(RB3LYP) =  -232.182847477     A.U. after   13 cycles

 Excitation energies and oscillator strengths:

 Excited State   1:      Singlet-A      5.0829 eV  243.92 nm  f=0.0113  <S**2>=0.000
      20 -> 22        -0.29892
      20 -> 23        -0.27232
      21 -> 22         0.48526
      21 -> 23        -0.31627
 This state for optimization and/or second-order correction.
 Total Energy, E(TD-HF/TD-DFT) =  -231.996054329
 Copying the excited state density for this state as the 1-particle RhoCI density.

 The electronic state is 1-A.
 Alpha  occ. eigenvalues --  -10.21532 -10.20732 -10.20374 -10.19940 -10.19443
 Alpha  occ. eigenvalues --  -10.19077  -0.84559  -0.74757  -0.72871  -0.60557
 Alpha  occ. eigenvalues --   -0.57524  -0.50639  -0.44221  -0.44162  -0.41557
 Alpha  occ. eigenvalues --   -0.39393  -0.35564  -0.33766  -0.32815  -0.25569
 Alpha  occ. eigenvalues --   -0.23761
 Alpha virt. eigenvalues --   -0.01790  -0.00431   0.05838   0.10961   0.12388
 Alpha virt. eigenvalues --    0.12427   0.15964   0.17411   0.19213   0.27270
 Alpha virt. eigenvalues --    0.29283   0.30792   0.31472   0.47040   0.48030

 Mulliken charges:
               1
     1  C   -0.075496
     2  C   -0.090052
     3  C   -0.077192
     4  C   -0.083572
     5  C   -0.087032
     6  C   -0.099067
     7  H    0.070583
     8  H    0.087744
     9  H    0.087121
    10  H    0.083569
    11  H    0.100450
    12  H    0.082944
 Sum of Mulliken charges =  -0.00000

 Dipole moment (field-independent basis, Debye):
    X=              0.2027    Y=             -0.1071    Z=              0.3179  Tot=              0.3919
 Quadrupole moment (field-independent basis, Debye-Ang):
   XX=            -31.2022   YY=            -33.1027   ZZ=            -38.8714
   XY=              0.6646   XZ=             -1.2026   YZ=              0.0096

 Normal termination of Gaussian 16 at Fri Nov 10 20:47:38 2023.
