 Gaussian 16, Revision B.01,
 Gaussian 16:  EM64L-G16RevB.01 20-Dec-2017

 ---------------------------------
 # TD=(NStates=1) B3LYP/6-31G(d,p)
 ---------------------------------

 -------
 EMISPCT
 -------
 Symbolic Z-matrix:
 Charge =  0 Multiplicity = 1

                         Standard orientation:
 ---------------------------------------------------------------------
 Center     Atomic      Atomic             Coordinates (Angstroms)
 Number     Number       Type             X           Y           Z
 ---------------------------------------------------------------------
      1          6           0       -0.027521   -1.357457   -0.039042
      2          6           0       -1.284146   -0.682397    0.000188
      3          6           0       -1.214535    0.702351    0.036700
      4          6           0       -0.025971    1.428223   -0.030457
      5          6           0        1.289493    0.673736   -0.035539
      6          6           0        1.228488   -0.758410    0.084222
      7          1           0        0.145072   -2.320804   -0.124917
      8          1           0        2.107053   -1.406027    0.019359
      9          1           0        2.313482    1.299432   -0.026908
     10          1           0        0.198338    2.513714    0.015375
     11          1           0       -2.384408    1.122529    0.031834
     12          1           0       -2.174379   -1.245124   -0.011179
 ---------------------------------------------------------------------

 SCF Done:  E(RB3LYP) =  -232.196276456     A.U. after   14 cycles

 Excitation energies and oscillator strengths:

 Excited State   1:      Singlet-A      5.2295 eV  237.08 nm  f=0.0015  <S**2>=0.000
      20 -> 22         0.48661
      21 -> 22        -0.15507
      21 -> 23         0.48118
 This state for optimization and/or second-order correction.
 Total Energy, E(TD-HF/TD-DFT) =  -232.004094302
 Copying the excited state density for this state as the 1-particle RhoCI density.

 The electronic state is 1-A.
 Alpha  occ. eigenvalues --  -10.21525 -10.20870 -10.20659 -10.19366 -10.19204
 Alpha  occ. eigenvalues --  -10.18001  -0.83754  -0.74345  -0.72771  -0.60453
 Alpha  occ. eigenvalues --   -0.58465  -0.51254  -0.45981  -0.43757  -0.41598
 Alpha  occ. eigenvalues --   -0.40043  -0.35432  -0.34455  -0.31856  -0.25264
 Alpha  occ. eigenvalues --   -0.23670
 Alpha virt. eigenvalues --   -0.01524   0.00229   0.07114   0.11656   0.13632
 Alpha virt. eigenvalues --    0.14321   0.15334   0.17568   0.20235   0.25887
 Alpha virt. eigenvalues --    0.29286   0.30078   0.31931   0.45910   0.49655

 Mulliken charges:
               1
     1  C   -0.062958
     2  C   -0.067038
     3  C   -0.082226
     4  C   -0.097991
     5  C   -0.110357
     6  C   -0.091314
     7  H    0.071284
     8  H    0.089814
     9  H    0.085996
    10  H    0.098803
    11  H    0.069938
    12  H    0.096049
 Sum of Mulliken charges =  -0.00000

 Dipole moment (field-independent basis, Debye):
    X=              0.1269    Y=             -0.2644    Z=             -0.0653  Tot=              0.3004
 Quadrupole moment (field-independent basis, Debye-Ang):
   XX=            -31.2924   YY=            -31.8580   ZZ=            -39.0203
   XY=              0.6523   XZ=             -0.0522   YZ=              0.2897

 Normal termination of Gaussian 16 at Fri Nov 10 20:22:12 2023.
