 Gaussian 16, Revision B.01,
 Gaussian 16:  EM64L-G16RevB.01 20-Dec-2017

 ---------------------------------
 # TD=(NStates=1) B3LYP/6-31G(d,p)
 ---------------------------------

 -------
 EMISPCT
 -------
 Symbolic Z-matrix:
 Charge =  0 Multiplicity = 1

                         Standard orientation:
 ---------------------------------------------------------------------
 Center     Atomic      Atomic             Coordinates (Angstroms)
 Number     Number       Type             X           Y           Z
 ---------------------------------------------------------------------
      1          6           0       -1.184099    0.846001    0.017109
      2          6           0       -1.307511   -0.561375    0.033455
      3          6           0       -0.216603   -1.398594   -0.061695
      4          6           0        1.118298   -0.878809    0.032417
      5          6           0        1.357739    0.561864    0.088862
      6          6           0        0.201804    1.410254   -0.117723
      7          1           0       -1.913395    1.535859    0.190777
      8          1           0        0.308336    2.470917   -0.310768
      9          1           0        2.306926    1.009831    0.342192
     10          1           0        2.050584   -1.638360   -0.229853
     11          1           0       -0.264645   -2.398654   -0.112615
     12          1           0       -2.305576   -0.855637    0.165715
 ---------------------------------------------------------------------

 SCF Done:  E(RB3LYP) =  -232.205026690     A.U. after   13 cycles

 Excitation energies and oscillator strengths:

 Excited State   1:      Singlet-A      4.9101 eV  252.51 nm  f=0.0004  <S**2>=0.000
      20 -> 22        -0.47258
      21 -> 23         0.52544
 This state for optimization and/or second-order correction.
 Total Energy, E(TD-HF/TD-DFT) =  -232.024584533
 Copying the excited state density for this state as the 1-particle RhoCI density.

 The electronic state is 1-A.
 Alpha  occ. eigenvalues --  -10.21101 -10.20316 -10.20252 -10.19273 -10.18762
 Alpha  occ. eigenvalues --  -10.18432  -0.82981  -0.73665  -0.72742  -0.59852
 Alpha  occ. eigenvalues --   -0.59305  -0.51479  -0.47085  -0.43458  -0.41883
 Alpha  occ. eigenvalues --   -0.40516  -0.35268  -0.34630  -0.32496  -0.24313
 Alpha  occ. eigenvalues --   -0.23231
 Alpha virt. eigenvalues --   -0.01469  -0.00801   0.08792   0.13098   0.13920
 Alpha virt. eigenvalues --    0.15422   0.16637   0.18234   0.19005   0.26377
 Alpha virt. eigenvalues --    0.28563   0.29598   0.31199   0.47268   0.48975

 Mulliken charges:
               1
     1  C   -0.088239
     2  C   -0.075597
     3  C   -0.063030
     4  C   -0.108776
     5  C   -0.090254
     6  C   -0.103095
     7  H    0.092350
     8  H    0.089109
     9  H    0.099411
    10  H    0.079827
    11  H    0.083374
    12  H    0.084920
 Sum of Mulliken charges =  -0.00000

 Dipole moment (field-independent basis, Debye):
    X=             -0.0873    Y=              0.1994    Z=              0.0611  Tot=              0.2261
 Quadrupole moment (field-independent basis, Debye-Ang):
   XX=            -31.5592   YY=            -31.3280   ZZ=            -38.6874
   XY=             -0.1499   XZ=             -0.3758   YZ=              0.3850

 Normal termination of Gaussian 16 at Fri Nov 10 21:23:29 2023.
