 Gaussian 16, Revision B.01,
 Gaussian 16:  EM64L-G16RevB.01 20-Dec-2017

 ---------------------------------
 # TD=(NStates=1) B3LYP/6-31G(d,p)
 ---------------------------------

 -------
 EMISPCT
 -------
 Symbolic Z-matrix:
 Charge =  0 Multiplicity = 1

                         Standard orientation:
 ---------------------------------------------------------------------
 Center     Atomic      Atomic             Coordinates (Angstroms)
 Number     Number       Type             X           Y           Z
 ---------------------------------------------------------------------
      1          6           0       -0.281137   -1.348650    0.006570
      2          6           0       -1.367198   -0.455108    0.008374
      3          6           0       -1.077182    0.941178    0.017618
      4          6           0        0.323900    1.375277    0.005185
      5          6           0        1.357175    0.432109   -0.038604
      6          6           0        1.051572   -0.919698   -0.030549
      7          1           0       -0.509273   -2.344650   -0.032812
      8          1           0        1.692150   -1.794433    0.304746
      9          1           0        2.522883    0.695906    0.050989
     10          1           0        0.572449    2.302554   -0.132560
     11          1           0       -1.937692    1.826797    0.226500
     12          1           0       -2.383290   -0.836822   -0.228426
 ---------------------------------------------------------------------

 SCF Done:  E(RB3LYP) =  -232.199881578     A.U. after   13 cycles

 Excitation energies and oscillator strengths:

 Excited State   1:      Singlet-A      5.2133 eV  237.82 nm  f=0.0007  <S**2>=0.000
      20 -> 22         0.47133
      20 -> 23         0.16336
      21 -> 22        -0.21731
      21 -> 23         0.45114
 This state for optimization and/or second-order correction.
 Total Energy, E(TD-HF/TD-DFT) =  -232.008296509
 Copying the excited state density for this state as the 1-particle RhoCI density.

 The electronic state is 1-A.
 Alpha  occ. eigenvalues --  -10.21682 -10.20255 -10.19718 -10.19101 -10.18834
 Alpha  occ. eigenvalues --  -10.18265  -0.84169  -0.74407  -0.73177  -0.60553
 Alpha  occ. eigenvalues --   -0.58845  -0.50772  -0.46249  -0.43573  -0.41689
 Alpha  occ. eigenvalues --   -0.39971  -0.36362  -0.34228  -0.32162  -0.24943
 Alpha  occ. eigenvalues --   -0.24233
 Alpha virt. eigenvalues --   -0.01240  -0.00390   0.07715   0.11014   0.13441
 Alpha virt. eigenvalues --    0.14197   0.16458   0.18489   0.19674   0.27820
 Alpha virt. eigenvalues --    0.29491   0.30574   0.31924   0.46313   0.50664

 Mulliken charges:
               1
     1  C   -0.079404
     2  C   -0.087787
     3  C   -0.101157
     4  C   -0.066695
     5  C   -0.096881
     6  C   -0.078470
     7  H    0.083063
     8  H    0.087860
     9  H    0.084175
    10  H    0.082661
    11  H    0.079339
    12  H    0.093296
 Sum of Mulliken charges =  -0.00000

 Dipole moment (field-independent basis, Debye):
    X=             -0.0535    Y=             -0.0927    Z=              0.0867  Tot=              0.1377
 Quadrupole moment (field-independent basis, Debye-Ang):
   XX=            -32.1712   YY=            -31.4820   ZZ=            -38.6734
   XY=              0.3381   XZ=              0.5819   YZ=             -0.1629

 Normal termination of Gaussian 16 at Fri Nov 10 23:07:10 2023.
