 Gaussian 16, Revision B.01,
 Gaussian 16:  EM64L-G16RevB.01 20-Dec-2017

 ---------------------------------
 # TD=(NStates=1) B3LYP/6-31G(d,p)
 ---------------------------------

 -------
 EMISPCT
 -------
 Symbolic Z-matrix:
 Charge =  0 Multiplicity = 1

                         Standard orientation:
 ---------------------------------------------------------------------
 Center     Atomic      Atomic             Coordinates (Angstroms)
 Number     Number       Type             X           Y           Z
 ---------------------------------------------------------------------
      1          6           0        1.457994   -0.063583   -0.083882
      2          6           0        0.754139    1.253278   -0.006361
      3          6           0       -0.707242    1.214859    0.015139
      4          6           0       -1.448869   -0.012420   -0.072545
      5          6           0       -0.759261   -1.168963    0.001093
      6          6           0        0.657675   -1.239093    0.029498
      7          1           0        2.588203   -0.162814   -0.101066
      8          1           0        1.189650   -2.044206    0.303777
      9          1           0       -1.118639   -2.100690    0.021073
     10          1           0       -2.503621    0.095778    0.123387
     11          1           0       -1.421168    2.158371    0.077421
     12          1           0        1.538960    2.149094    0.277756
 ---------------------------------------------------------------------

 SCF Done:  E(RB3LYP) =  -232.193163616     A.U. after   14 cycles

 Excitation energies and oscillator strengths:

 Excited State   1:      Singlet-A      5.0722 eV  244.44 nm  f=0.0021  <S**2>=0.000
      20 -> 23        -0.45013
      21 -> 22         0.53945
 This state for optimization and/or second-order correction.
 Total Energy, E(TD-HF/TD-DFT) =  -232.006764899
 Copying the excited state density for this state as the 1-particle RhoCI density.

 The electronic state is 1-A.
 Alpha  occ. eigenvalues --  -10.22019 -10.21143 -10.20517 -10.19130 -10.18325
 Alpha  occ. eigenvalues --  -10.18040  -0.83594  -0.73817  -0.72866  -0.59995
 Alpha  occ. eigenvalues --   -0.58967  -0.51127  -0.46307  -0.43797  -0.41490
 Alpha  occ. eigenvalues --   -0.39858  -0.35127  -0.34447  -0.32666  -0.24555
 Alpha  occ. eigenvalues --   -0.23764
 Alpha virt. eigenvalues --   -0.00988  -0.00803   0.07354   0.11830   0.13468
 Alpha virt. eigenvalues --    0.14020   0.15933   0.18168   0.20035   0.26490
 Alpha virt. eigenvalues --    0.28225   0.29753   0.31867   0.47139   0.48934

 Mulliken charges:
               1
     1  C   -0.104528
     2  C   -0.097284
     3  C   -0.108534
     4  C   -0.076317
     5  C   -0.063039
     6  C   -0.076741
     7  H    0.091431
     8  H    0.085472
     9  H    0.079818
    10  H    0.095194
    11  H    0.083076
    12  H    0.091452
 Sum of Mulliken charges =  -0.00000

 Dipole moment (field-independent basis, Debye):
    X=              0.0828    Y=             -0.2810    Z=              0.4480  Tot=              0.5353
 Quadrupole moment (field-independent basis, Debye-Ang):
   XX=            -30.7295   YY=            -32.4915   ZZ=            -38.8379
   XY=             -0.3688   XZ=              0.1178   YZ=              0.0683

 Normal termination of Gaussian 16 at Fri Nov 10 22:33:06 2023.
