 Gaussian 16, Revision B.01,
 Gaussian 16:  EM64L-G16RevB.01 20-Dec-2017

 ---------------------------------
 # TD=(NStates=1) B3LYP/6-31G(d,p)
 ---------------------------------

 -------
 EMISPCT
 -------
 Symbolic Z-matrix:
 Charge =  0 Multiplicity = 1

                         Standard orientation:
 ---------------------------------------------------------------------
 Center     Atomic      Atomic             Coordinates (Angstroms)
 Number     Number       Type             X           Y           Z
 ---------------------------------------------------------------------
      1          6           0        1.030925    0.971509    0.120075
      2          6           0       -0.394687    1.358723   -0.000089
      3          6           0       -1.493319    0.300902    0.063672
      4          6           0       -1.012361   -1.007779   -0.034769
      5          6           0        0.459196   -1.316128   -0.046879
      6          6           0        1.460218   -0.329268   -0.033352
      7          1           0        1.645781    1.824894   -0.261860
      8          1           0        2.393041   -0.439656   -0.255739
      9          1           0        0.715169   -2.355393    0.411503
     10          1           0       -1.717837   -1.886378   -0.013946
     11          1           0       -2.594920    0.538567   -0.294584
     12          1           0       -0.741071    2.450217    0.002674
 ---------------------------------------------------------------------

 SCF Done:  E(RB3LYP) =  -232.172989444     A.U. after   14 cycles

 Excitation energies and oscillator strengths:

 Excited State   1:      Singlet-A      4.7596 eV  260.49 nm  f=0.0031  <S**2>=0.000
      20 -> 22         0.46610
      21 -> 22         0.15782
      21 -> 23         0.50243
 This state for optimization and/or second-order correction.
 Total Energy, E(TD-HF/TD-DFT) =  -231.998077613
 Copying the excited state density for this state as the 1-particle RhoCI density.

 The electronic state is 1-A.
 Alpha  occ. eigenvalues --  -10.21997 -10.21346 -10.20779 -10.20602 -10.19880
 Alpha  occ. eigenvalues --  -10.18571  -0.83040  -0.74738  -0.71300  -0.59988
 Alpha  occ. eigenvalues --   -0.58344  -0.50708  -0.45901  -0.42789  -0.42366
 Alpha  occ. eigenvalues --   -0.39236  -0.36578  -0.32927  -0.31716  -0.25586
 Alpha  occ. eigenvalues --   -0.22989
 Alpha virt. eigenvalues --   -0.03330  -0.01111   0.08668   0.09940   0.13227
 Alpha virt. eigenvalues --    0.14462   0.15309   0.16292   0.19241   0.24182
 Alpha virt. eigenvalues --    0.27220   0.29838   0.30501   0.44640   0.48245

 Mulliken charges:
               1
     1  C   -0.098393
     2  C   -0.109667
     3  C   -0.092331
     4  C   -0.086642
     5  C   -0.110902
     6  C   -0.048501
     7  H    0.086628
     8  H    0.090801
     9  H    0.086830
    10  H    0.092789
    11  H    0.093614
    12  H    0.095774
 Sum of Mulliken charges =  -0.00000

 Dipole moment (field-independent basis, Debye):
    X=             -0.0455    Y=              0.1058    Z=             -0.2921  Tot=              0.3140
 Quadrupole moment (field-independent basis, Debye-Ang):
   XX=            -31.5004   YY=            -32.5914   ZZ=            -38.8264
   XY=              0.0450   XZ=             -0.0083   YZ=             -1.2591

 Normal termination of Gaussian 16 at Fri Nov 10 22:06:20 2023.
