 Gaussian 16, Revision B.01,
 Gaussian 16:  EM64L-G16RevB.01 20-Dec-2017

 ---------------------------------
 # TD=(NStates=1) B3LYP/6-31G(d,p)
 ---------------------------------

 -------
 EMISPCT
 -------
 Symbolic Z-matrix:
 Charge =  0 Multiplicity = 1

                         Standard orientation:
 ---------------------------------------------------------------------
 Center     Atomic      Atomic             Coordinates (Angstroms)
 Number     Number       Type             X           Y           Z
 ---------------------------------------------------------------------
      1          6           0       -1.347876   -0.711847    0.018172
      2          6           0       -0.075273   -1.391751    0.017633
      3          6           0        1.310242   -0.732357    0.050480
      4          6           0        1.277302    0.632665   -0.025639
      5          6           0        0.065493    1.395904   -0.037209
      6          6           0       -1.208227    0.769176   -0.022200
      7          1           0       -2.218641   -1.177318   -0.172276
      8          1           0       -2.002731    1.533683    0.214560
      9          1           0       -0.061808    2.554181    0.138122
     10          1           0        2.162050    1.265653   -0.119124
     11          1           0        2.204457   -1.410438    0.044333
     12          1           0       -0.213303   -2.536501   -0.113034
 ---------------------------------------------------------------------

 SCF Done:  E(RB3LYP) =  -232.201603516     A.U. after   13 cycles

 Excitation energies and oscillator strengths:

 Excited State   1:      Singlet-A      5.0424 eV  245.89 nm  f=0.0027  <S**2>=0.000
      20 -> 22         0.40736
      20 -> 23         0.20965
      21 -> 22        -0.28033
      21 -> 23         0.45953
 This state for optimization and/or second-order correction.
 Total Energy, E(TD-HF/TD-DFT) =  -232.016300129
 Copying the excited state density for this state as the 1-particle RhoCI density.

 The electronic state is 1-A.
 Alpha  occ. eigenvalues --  -10.21416 -10.21187 -10.20166 -10.20051 -10.19881
 Alpha  occ. eigenvalues --  -10.19875  -0.82743  -0.73945  -0.72138  -0.59980
 Alpha  occ. eigenvalues --   -0.58171  -0.50585  -0.46301  -0.43643  -0.41865
 Alpha  occ. eigenvalues --   -0.39394  -0.35133  -0.33298  -0.32715  -0.24916
 Alpha  occ. eigenvalues --   -0.23641
 Alpha virt. eigenvalues --   -0.01427  -0.00913   0.07850   0.12454   0.12605
 Alpha virt. eigenvalues --    0.14377   0.15599   0.17155   0.18162   0.24728
 Alpha virt. eigenvalues --    0.27671   0.29439   0.31408   0.44746   0.47363

 Mulliken charges:
               1
     1  C   -0.075749
     2  C   -0.115200
     3  C   -0.085476
     4  C   -0.082744
     5  C   -0.086163
     6  C   -0.096407
     7  H    0.096254
     8  H    0.083225
     9  H    0.087059
    10  H    0.089682
    11  H    0.105115
    12  H    0.080404
 Sum of Mulliken charges =  -0.00000

 Dipole moment (field-independent basis, Debye):
    X=              0.0586    Y=             -0.0360    Z=             -0.0215  Tot=              0.0721
 Quadrupole moment (field-independent basis, Debye-Ang):
   XX=            -31.5807   YY=            -31.5081   ZZ=            -39.1545
   XY=             -0.1515   XZ=             -0.0892   YZ=              0.8172

 Normal termination of Gaussian 16 at Fri Nov 10 19:46:23 2023.
