 Gaussian 16, Revision B.01,
 Gaussian 16:  EM64L-G16RevB.01 20-Dec-2017

 ---------------------------------
 # TD=(NStates=1) B3LYP/6-31G(d,p)
 ---------------------------------

 -------
 EMISPCT
 -------
 Symbolic Z-matrix:
 Charge =  0 Multiplicity = 1

                         Standard orientation:
 ---------------------------------------------------------------------
 Center     Atomic      Atomic             Coordinates (Angstroms)
 Number     Number       Type             X           Y           Z
 ---------------------------------------------------------------------
      1          6           0       -1.405997    0.020510   -0.015528
      2          6           0       -0.739440   -1.131671   -0.021034
      3          6           0        0.654303   -1.214398   -0.015888
      4          6           0        1.443906   -0.007445   -0.051326
      5          6           0        0.761582    1.144191    0.086860
      6          6           0       -0.730894    1.245757   -0.023376
      7          1           0       -2.552880   -0.162937    0.001371
      8          1           0       -1.141575    2.294203    0.019457
      9          1           0        1.276294    2.051914   -0.077954
     10          1           0        2.504026   -0.113263    0.048617
     11          1           0        1.299860   -2.160840    0.042041
     12          1           0       -1.286490   -2.250736    0.208227
 ---------------------------------------------------------------------

 SCF Done:  E(RB3LYP) =  -232.205162200     A.U. after   13 cycles

 Excitation energies and oscillator strengths:

 Excited State   1:      Singlet-A      5.4349 eV  228.13 nm  f=0.0013  <S**2>=0.000
      20 -> 22         0.49368
      21 -> 22         0.11474
      21 -> 23        -0.48942
 This state for optimization and/or second-order correction.
 Total Energy, E(TD-HF/TD-DFT) =  -232.005434079
 Copying the excited state density for this state as the 1-particle RhoCI density.

 The electronic state is 1-A.
 Alpha  occ. eigenvalues --  -10.20698 -10.19974 -10.19757 -10.19715 -10.18877
 Alpha  occ. eigenvalues --  -10.18703  -0.84869  -0.75327  -0.72548  -0.60370
 Alpha  occ. eigenvalues --   -0.58517  -0.50988  -0.44940  -0.43982  -0.42362
 Alpha  occ. eigenvalues --   -0.39498  -0.35993  -0.34483  -0.31689  -0.26037
 Alpha  occ. eigenvalues --   -0.23780
 Alpha virt. eigenvalues --   -0.01476   0.00843   0.06173   0.12384   0.13137
 Alpha virt. eigenvalues --    0.14784   0.15972   0.17463   0.19012   0.26288
 Alpha virt. eigenvalues --    0.29947   0.31177   0.33541   0.46186   0.49359

 Mulliken charges:
               1
     1  C   -0.071216
     2  C   -0.067116
     3  C   -0.093470
     4  C   -0.069809
     5  C   -0.099189
     6  C   -0.111093
     7  H    0.086801
     8  H    0.099222
     9  H    0.082648
    10  H    0.090954
    11  H    0.084420
    12  H    0.067847
 Sum of Mulliken charges =  -0.00000

 Dipole moment (field-independent basis, Debye):
    X=              0.1992    Y=              0.0720    Z=              0.1175  Tot=              0.2423
 Quadrupole moment (field-independent basis, Debye-Ang):
   XX=            -31.7113   YY=            -32.0005   ZZ=            -38.7944
   XY=             -0.3548   XZ=             -0.1251   YZ=             -0.5333

 Normal termination of Gaussian 16 at Fri Nov 10 20:09:53 2023.
