 Gaussian 16, Revision B.01,
 Gaussian 16:  EM64L-G16RevB.01 20-Dec-2017

 ---------------------------------
 # TD=(NStates=1) B3LYP/6-31G(d,p)
 ---------------------------------

 -------
 EMISPCT
 -------
 Symbolic Z-matrix:
 Charge =  0 Multiplicity = 1

                         Standard orientation:
 ---------------------------------------------------------------------
 Center     Atomic      Atomic             Coordinates (Angstroms)
 Number     Number       Type             X           Y           Z
 ---------------------------------------------------------------------
      1          6           0        0.534856    1.233064   -0.027038
      2          6           0        1.458066    0.162339    0.097131
      3          6           0        0.845741   -1.143889   -0.091283
      4          6           0       -0.589207   -1.223320    0.003684
      5          6           0       -1.458403   -0.165925    0.028102
      6          6           0       -0.818862    1.130205   -0.045731
      7          1           0        1.152468    2.260447   -0.056536
      8          1           0       -1.448892    2.036266   -0.096019
      9          1           0       -2.538584   -0.359482    0.226322
     10          1           0       -0.951515   -2.114484    0.090840
     11          1           0        1.455357   -1.980246   -0.197647
     12          1           0        2.498020    0.202655    0.243844
 ---------------------------------------------------------------------

 SCF Done:  E(RB3LYP) =  -232.212333231     A.U. after   13 cycles

 Excitation energies and oscillator strengths:

 Excited State   1:      Singlet-A      5.2418 eV  236.53 nm  f=0.0059  <S**2>=0.000
      20 -> 22         0.50331
      20 -> 23         0.15398
      21 -> 22         0.25970
      21 -> 23        -0.39345
 This state for optimization and/or second-order correction.
 Total Energy, E(TD-HF/TD-DFT) =  -232.019702218
 Copying the excited state density for this state as the 1-particle RhoCI density.

 The electronic state is 1-A.
 Alpha  occ. eigenvalues --  -10.19763 -10.19462 -10.19363 -10.19348 -10.19146
 Alpha  occ. eigenvalues --  -10.17501  -0.84081  -0.74240  -0.73391  -0.60471
 Alpha  occ. eigenvalues --   -0.59111  -0.51729  -0.46853  -0.43983  -0.41976
 Alpha  occ. eigenvalues --   -0.40196  -0.36553  -0.34730  -0.31756  -0.24650
 Alpha  occ. eigenvalues --   -0.23876
 Alpha virt. eigenvalues --   -0.01386   0.00910   0.08608   0.13497   0.14438
 Alpha virt. eigenvalues --    0.15517   0.16510   0.18307   0.20260   0.28538
 Alpha virt. eigenvalues --    0.28727   0.29829   0.33065   0.47377   0.51049

 Mulliken charges:
               1
     1  C   -0.075912
     2  C   -0.085908
     3  C   -0.092078
     4  C   -0.062268
     5  C   -0.088615
     6  C   -0.097934
     7  H    0.071351
     8  H    0.087681
     9  H    0.095614
    10  H    0.068402
    11  H    0.084547
    12  H    0.095122
 Sum of Mulliken charges =  -0.00000

 Dipole moment (field-independent basis, Debye):
    X=              0.0987    Y=             -0.2605    Z=              0.1529  Tot=              0.3178
 Quadrupole moment (field-independent basis, Debye-Ang):
   XX=            -30.5387   YY=            -32.3756   ZZ=            -38.5446
   XY=             -0.0877   XZ=             -0.2031   YZ=             -0.1057

 Normal termination of Gaussian 16 at Fri Nov 10 21:04:22 2023.
