 Gaussian 16, Revision B.01,
 Gaussian 16:  EM64L-G16RevB.01 20-Dec-2017

 ---------------------------------
 # TD=(NStates=1) B3LYP/6-31G(d,p)
 ---------------------------------

 -------
 EMISPCT
 -------
 Symbolic Z-matrix:
 Charge =  0 Multiplicity = 1

                         Standard orientation:
 ---------------------------------------------------------------------
 Center     Atomic      Atomic             Coordinates (Angstroms)
 Number     Number       Type             X           Y           Z
 ---------------------------------------------------------------------
      1          6           0        1.292915    0.586485    0.036089
      2          6           0        1.183619   -0.823713   -0.061401
      3          6           0       -0.091113   -1.346733   -0.030185
      4          6           0       -1.303795   -0.613105    0.037926
      5          6           0       -1.157482    0.798848    0.000037
      6          6           0        0.091805    1.434838   -0.038309
      7          1           0        2.199379    1.201646    0.254350
      8          1           0        0.178480    2.466564   -0.007802
      9          1           0       -2.083924    1.234067   -0.102909
     10          1           0       -2.269049   -1.180660    0.103216
     11          1           0       -0.170130   -2.438583    0.117768
     12          1           0        2.049555   -1.502756   -0.029567
 ---------------------------------------------------------------------

 SCF Done:  E(RB3LYP) =  -232.231463879     A.U. after   13 cycles

 Excitation energies and oscillator strengths:

 Excited State   1:      Singlet-A      5.2717 eV  235.19 nm  f=0.0008  <S**2>=0.000
      20 -> 22         0.47378
      20 -> 23         0.10369
      21 -> 22        -0.15265
      21 -> 23         0.49104
 This state for optimization and/or second-order correction.
 Total Energy, E(TD-HF/TD-DFT) =  -232.037730883
 Copying the excited state density for this state as the 1-particle RhoCI density.

 The electronic state is 1-A.
 Alpha  occ. eigenvalues --  -10.20239 -10.19470 -10.19413 -10.19190 -10.18826
 Alpha  occ. eigenvalues --  -10.18632  -0.83817  -0.74281  -0.72993  -0.59785
 Alpha  occ. eigenvalues --   -0.59590  -0.51444  -0.46480  -0.43313  -0.42207
 Alpha  occ. eigenvalues --   -0.40785  -0.35679  -0.34516  -0.32468  -0.24986
 Alpha  occ. eigenvalues --   -0.23732
 Alpha virt. eigenvalues --   -0.00932   0.00182   0.08985   0.13625   0.14567
 Alpha virt. eigenvalues --    0.14791   0.17296   0.18137   0.19240   0.27235
 Alpha virt. eigenvalues --    0.29032   0.30908   0.32569   0.45844   0.49636

 Mulliken charges:
               1
     1  C   -0.108159
     2  C   -0.074536
     3  C   -0.087735
     4  C   -0.088275
     5  C   -0.081629
     6  C   -0.082875
     7  H    0.089207
     8  H    0.088867
     9  H    0.081282
    10  H    0.094489
    11  H    0.075533
    12  H    0.093831
 Sum of Mulliken charges =  -0.00000

 Dipole moment (field-independent basis, Debye):
    X=             -0.0469    Y=             -0.0031    Z=              0.1995  Tot=              0.2049
 Quadrupole moment (field-independent basis, Debye-Ang):
   XX=            -31.4428   YY=            -31.4959   ZZ=            -38.6952
   XY=              0.2903   XZ=              0.3747   YZ=             -0.1421

 Normal termination of Gaussian 16 at Fri Nov 10 22:54:10 2023.
