 Gaussian 16, Revision B.01,
 Gaussian 16:  EM64L-G16RevB.01 20-Dec-2017

 ---------------------------------
 # TD=(NStates=1) B3LYP/6-31G(d,p)
 ---------------------------------

 -------
 EMISPCT
 -------
 Symbolic Z-matrix:
 Charge =  0 Multiplicity = 1

                         Standard orientation:
 ---------------------------------------------------------------------
 Center     Atomic      Atomic             Coordinates (Angstroms)
 Number     Number       Type             X           Y           Z
 ---------------------------------------------------------------------
      1          6           0       -0.467940   -1.310192   -0.017256
      2          6           0        0.963967   -1.048554    0.032319
      3          6           0        1.452170    0.295894   -0.031932
      4          6           0        0.416623    1.397447   -0.113244
      5          6           0       -0.937983    1.031965    0.023505
      6          6           0       -1.428600   -0.328417   -0.021855
      7          1           0       -0.670592   -2.444629    0.081705
      8          1           0       -2.503490   -0.484720   -0.124867
      9          1           0       -1.950343    1.780416    0.442280
     10          1           0        0.882146    2.341704    0.043956
     11          1           0        2.537148    0.365677    0.334338
     12          1           0        1.715710   -1.787304   -0.006630
 ---------------------------------------------------------------------

 SCF Done:  E(RB3LYP) =  -232.183809620     A.U. after   13 cycles

 Excitation energies and oscillator strengths:

 Excited State   1:      Singlet-A      4.9358 eV  251.19 nm  f=0.0034  <S**2>=0.000
      20 -> 22        -0.19543
      20 -> 23         0.38436
      21 -> 22         0.51565
      21 -> 23         0.21775
 This state for optimization and/or second-order correction.
 Total Energy, E(TD-HF/TD-DFT) =  -232.002422997
 Copying the excited state density for this state as the 1-particle RhoCI density.

 The electronic state is 1-A.
 Alpha  occ. eigenvalues --  -10.22217 -10.20932 -10.20746 -10.20339 -10.19915
 Alpha  occ. eigenvalues --  -10.19287  -0.83166  -0.73552  -0.72779  -0.59781
 Alpha  occ. eigenvalues --   -0.58284  -0.50680  -0.45106  -0.44044  -0.41979
 Alpha  occ. eigenvalues --   -0.39207  -0.34931  -0.34489  -0.31684  -0.24608
 Alpha  occ. eigenvalues --   -0.23799
 Alpha virt. eigenvalues --   -0.01789  -0.01031   0.05229   0.11612   0.12859
 Alpha virt. eigenvalues --    0.13410   0.15776   0.16439   0.18705   0.25658
 Alpha virt. eigenvalues --    0.27417   0.29112   0.32649   0.46486   0.47673

 Mulliken charges:
               1
     1  C   -0.077726
     2  C   -0.084617
     3  C   -0.114121
     4  C   -0.106353
     5  C   -0.075266
     6  C   -0.080952
     7  H    0.080026
     8  H    0.103566
     9  H    0.063202
    10  H    0.101269
    11  H    0.100123
    12  H    0.090849
 Sum of Mulliken charges =  -0.00000

 Dipole moment (field-independent basis, Debye):
    X=              0.1321    Y=             -0.2290    Z=              0.4145  Tot=              0.4916
 Quadrupole moment (field-independent basis, Debye-Ang):
   XX=            -30.8111   YY=            -33.0496   ZZ=            -39.0207
   XY=              0.1048   XZ=              0.4189   YZ=              0.5869

 Normal termination of Gaussian 16 at Fri Nov 10 20:21:02 2023.
