 Gaussian 16, Revision B.01,
 Gaussian 16:  EM64L-G16RevB.01 20-Dec-2017

 ---------------------------------
 # TD=(NStates=1) B3LYP/6-31G(d,p)
 ---------------------------------

 -------
 EMISPCT
 -------
 Symbolic Z-matrix:
 Charge =  0 Multiplicity = 1

                         Standard orientation:
 ---------------------------------------------------------------------
 Center     Atomic      Atomic             Coordinates (Angstroms)
 Number     Number       Type             X           Y           Z
 ---------------------------------------------------------------------
      1          6           0       -1.456446    0.180469    0.016777
      2          6           0       -0.570057    1.282684   -0.098816
      3          6           0        0.769083    1.147185    0.042725
      4          6           0        1.507897   -0.181159    0.109342
      5          6           0        0.517064   -1.326381   -0.111062
      6          6           0       -0.859869   -1.139575    0.004577
      7          1           0       -2.428771    0.215028    0.215708
      8          1           0       -1.476949   -1.962769    0.185625
      9          1           0        1.067029   -2.231748   -0.096217
     10          1           0        2.705850   -0.241650    0.000509
     11          1           0        1.435323    2.073668   -0.080269
     12          1           0       -0.748517    2.368137   -0.006619
 ---------------------------------------------------------------------

 SCF Done:  E(RB3LYP) =  -232.185763384     A.U. after   13 cycles

 Excitation energies and oscillator strengths:

 Excited State   1:      Singlet-A      4.9349 eV  251.24 nm  f=0.0051  <S**2>=0.000
      20 -> 22         0.55385
      21 -> 22        -0.12887
      21 -> 23         0.41463
 This state for optimization and/or second-order correction.
 Total Energy, E(TD-HF/TD-DFT) =  -232.004408486
 Copying the excited state density for this state as the 1-particle RhoCI density.

 The electronic state is 1-A.
 Alpha  occ. eigenvalues --  -10.22079 -10.20091 -10.19940 -10.19454 -10.19398
 Alpha  occ. eigenvalues --  -10.19088  -0.83157  -0.74326  -0.72103  -0.60718
 Alpha  occ. eigenvalues --   -0.58120  -0.51382  -0.46379  -0.43073  -0.41480
 Alpha  occ. eigenvalues --   -0.40659  -0.35606  -0.34606  -0.31281  -0.24904
 Alpha  occ. eigenvalues --   -0.23243
 Alpha virt. eigenvalues --   -0.02827   0.00324   0.08265   0.12027   0.13406
 Alpha virt. eigenvalues --    0.14342   0.16842   0.18094   0.18750   0.25264
 Alpha virt. eigenvalues --    0.26817   0.29481   0.31761   0.47168   0.47807

 Mulliken charges:
               1
     1  C   -0.082028
     2  C   -0.062830
     3  C   -0.098386
     4  C   -0.115147
     5  C   -0.096208
     6  C   -0.084208
     7  H    0.087649
     8  H    0.091558
     9  H    0.090989
    10  H    0.100369
    11  H    0.079188
    12  H    0.089053
 Sum of Mulliken charges =  -0.00000

 Dipole moment (field-independent basis, Debye):
    X=             -0.0130    Y=             -0.0630    Z=              0.1500  Tot=              0.1632
 Quadrupole moment (field-independent basis, Debye-Ang):
   XX=            -30.9012   YY=            -32.0043   ZZ=            -38.9829
   XY=              0.2800   XZ=             -0.9265   YZ=             -0.2075

 Normal termination of Gaussian 16 at Fri Nov 10 19:45:36 2023.
