 Gaussian 16, Revision B.01,
 Gaussian 16:  EM64L-G16RevB.01 20-Dec-2017

 ---------------------------------
 # TD=(NStates=1) B3LYP/6-31G(d,p)
 ---------------------------------

 -------
 EMISPCT
 -------
 Symbolic Z-matrix:
 Charge =  0 Multiplicity = 1

                         Standard orientation:
 ---------------------------------------------------------------------
 Center     Atomic      Atomic             Coordinates (Angstroms)
 Number     Number       Type             X           Y           Z
 ---------------------------------------------------------------------
      1          6           0        0.041075    1.454601    0.054407
      2          6           0       -1.225977    0.695599    0.025503
      3          6           0       -1.301694   -0.655445   -0.098424
      4          6           0       -0.073118   -1.376286    0.008086
      5          6           0        1.254848   -0.730612    0.085786
      6          6           0        1.245497    0.641880   -0.140479
      7          1           0        0.177100    2.579174    0.370327
      8          1           0        2.332897    0.937100   -0.364794
      9          1           0        2.212700   -1.266466    0.332230
     10          1           0       -0.040256   -2.586017   -0.006130
     11          1           0       -2.219237   -1.132689    0.111073
     12          1           0       -2.106989    1.290476   -0.051975
 ---------------------------------------------------------------------

 SCF Done:  E(RB3LYP) =  -232.192606947     A.U. after   14 cycles

 Excitation energies and oscillator strengths:

 Excited State   1:      Singlet-A      4.8646 eV  254.87 nm  f=0.0009  <S**2>=0.000
      20 -> 22         0.48278
      21 -> 23         0.50361
 This state for optimization and/or second-order correction.
 Total Energy, E(TD-HF/TD-DFT) =  -232.013834632
 Copying the excited state density for this state as the 1-particle RhoCI density.

 The electronic state is 1-A.
 Alpha  occ. eigenvalues --  -10.21512 -10.21076 -10.20383 -10.20130 -10.19457
 Alpha  occ. eigenvalues --  -10.18868  -0.83448  -0.74795  -0.71455  -0.59746
 Alpha  occ. eigenvalues --   -0.58181  -0.50339  -0.45798  -0.43030  -0.42079
 Alpha  occ. eigenvalues --   -0.39849  -0.34887  -0.34399  -0.32884  -0.24668
 Alpha  occ. eigenvalues --   -0.22743
 Alpha virt. eigenvalues --   -0.02022  -0.00345   0.06992   0.12202   0.12645
 Alpha virt. eigenvalues --    0.13752   0.15452   0.16707   0.18364   0.26457
 Alpha virt. eigenvalues --    0.27706   0.30708   0.30791   0.45348   0.46781

 Mulliken charges:
               1
     1  C   -0.107385
     2  C   -0.098042
     3  C   -0.069814
     4  C   -0.105146
     5  C   -0.082122
     6  C   -0.088076
     7  H    0.103098
     8  H    0.084102
     9  H    0.102421
    10  H    0.071185
    11  H    0.099314
    12  H    0.090465
 Sum of Mulliken charges =  -0.00000

 Dipole moment (field-independent basis, Debye):
    X=              0.1516    Y=              0.0294    Z=              0.2819  Tot=              0.3214
 Quadrupole moment (field-independent basis, Debye-Ang):
   XX=            -31.0248   YY=            -32.5396   ZZ=            -38.8724
   XY=             -0.3703   XZ=             -0.0844   YZ=              0.0925

 Normal termination of Gaussian 16 at Fri Nov 10 21:05:09 2023.
