 Gaussian 16, Revision B.01,
 Gaussian 16:  EM64L-G16RevB.01 20-Dec-2017

 ---------------------------------
 # TD=(NStates=1) B3LYP/6-31G(d,p)
 ---------------------------------

 -------
 EMISPCT
 -------
 Symbolic Z-matrix:
 Charge =  0 Multiplicity = 1

                         Standard orientation:
 ---------------------------------------------------------------------
 Center     Atomic      Atomic             Coordinates (Angstroms)
 Number     Number       Type             X           Y           Z
 ---------------------------------------------------------------------
      1          6           0       -0.805902   -1.160593    0.006337
      2          6           0        0.634342   -1.249653   -0.047965
      3          6           0        1.448261   -0.127128   -0.010785
      4          6           0        0.820892    1.201734   -0.009213
      5          6           0       -0.640480    1.178928   -0.002381
      6          6           0       -1.487007    0.081543    0.033290
      7          1           0       -1.291522   -2.028506    0.139000
      8          1           0       -2.696278    0.419169   -0.067037
      9          1           0       -0.941540    2.330042   -0.099346
     10          1           0        1.511253    2.107099    0.086027
     11          1           0        2.518339   -0.227456    0.194395
     12          1           0        1.079107   -2.149327   -0.068736
 ---------------------------------------------------------------------

 SCF Done:  E(RB3LYP) =  -232.194662480     A.U. after   14 cycles

 Excitation energies and oscillator strengths:

 Excited State   1:      Singlet-A      5.1873 eV  239.01 nm  f=0.0026  <S**2>=0.000
      20 -> 22         0.46781
      20 -> 23        -0.14796
      21 -> 22         0.23037
      21 -> 23         0.45367
 This state for optimization and/or second-order correction.
 Total Energy, E(TD-HF/TD-DFT) =  -232.004032618
 Copying the excited state density for this state as the 1-particle RhoCI density.

 The electronic state is 1-A.
 Alpha  occ. eigenvalues --  -10.21329 -10.20567 -10.20379 -10.19476 -10.19398
 Alpha  occ. eigenvalues --  -10.18539  -0.83591  -0.74138  -0.72778  -0.60405
 Alpha  occ. eigenvalues --   -0.58525  -0.50800  -0.46161  -0.43297  -0.41620
 Alpha  occ. eigenvalues --   -0.40177  -0.35600  -0.34462  -0.31656  -0.25092
 Alpha  occ. eigenvalues --   -0.23665
 Alpha virt. eigenvalues --   -0.01540   0.00156   0.06634   0.11471   0.13486
 Alpha virt. eigenvalues --    0.14755   0.15559   0.17472   0.19597   0.27343
 Alpha virt. eigenvalues --    0.28000   0.30750   0.31306   0.45903   0.48720

 Mulliken charges:
               1
     1  C   -0.104990
     2  C   -0.061843
     3  C   -0.092298
     4  C   -0.099194
     5  C   -0.083039
     6  C   -0.079349
     7  H    0.086115
     8  H    0.097363
     9  H    0.071311
    10  H    0.097629
    11  H    0.087839
    12  H    0.080455
 Sum of Mulliken charges =  -0.00000

 Dipole moment (field-independent basis, Debye):
    X=              0.1868    Y=             -0.1219    Z=              0.1267  Tot=              0.2565
 Quadrupole moment (field-independent basis, Debye-Ang):
   XX=            -31.3436   YY=            -31.7268   ZZ=            -38.9903
   XY=              0.1158   XZ=              0.5247   YZ=             -0.2062

 Normal termination of Gaussian 16 at Fri Nov 10 21:10:06 2023.
