 Gaussian 16, Revision B.01,
 Gaussian 16:  EM64L-G16RevB.01 20-Dec-2017

 ---------------------------------
 # TD=(NStates=1) B3LYP/6-31G(d,p)
 ---------------------------------

 -------
 EMISPCT
 -------
 Symbolic Z-matrix:
 Charge =  0 Multiplicity = 1

                         Standard orientation:
 ---------------------------------------------------------------------
 Center     Atomic      Atomic             Coordinates (Angstroms)
 Number     Number       Type             X           Y           Z
 ---------------------------------------------------------------------
      1          6           0       -0.550668    1.306009   -0.068493
      2          6           0       -1.488637    0.220541   -0.065398
      3          6           0       -0.932076   -1.167963    0.130973
      4          6           0        0.567307   -1.255909   -0.054171
      5          6           0        1.479181   -0.228069   -0.120176
      6          6           0        0.865312    1.129713    0.143006
      7          1           0       -0.752921    2.241675   -0.100361
      8          1           0        1.566666    2.072707    0.348786
      9          1           0        2.639820   -0.433646   -0.168405
     10          1           0        1.161723   -2.282846    0.124461
     11          1           0       -1.682381   -1.968376    0.124576
     12          1           0       -2.575425    0.344553   -0.123507
 ---------------------------------------------------------------------

 SCF Done:  E(RB3LYP) =  -232.170215602     A.U. after   14 cycles

 Excitation energies and oscillator strengths:

 Excited State   1:      Singlet-A      4.7922 eV  258.72 nm  f=0.0057  <S**2>=0.000
      20 -> 22         0.49340
      20 -> 23        -0.11300
      21 -> 22        -0.24397
      21 -> 23        -0.42856
 This state for optimization and/or second-order correction.
 Total Energy, E(TD-HF/TD-DFT) =  -231.994105065
 Copying the excited state density for this state as the 1-particle RhoCI density.

 The electronic state is 1-A.
 Alpha  occ. eigenvalues --  -10.21625 -10.21477 -10.21209 -10.21133 -10.21001
 Alpha  occ. eigenvalues --  -10.18837  -0.82153  -0.73816  -0.71586  -0.59403
 Alpha  occ. eigenvalues --   -0.58216  -0.50614  -0.46001  -0.42710  -0.41145
 Alpha  occ. eigenvalues --   -0.39720  -0.35756  -0.34051  -0.31671  -0.24691
 Alpha  occ. eigenvalues --   -0.22901
 Alpha virt. eigenvalues --   -0.02869  -0.00200   0.07049   0.11846   0.12251
 Alpha virt. eigenvalues --    0.13269   0.14833   0.16526   0.18791   0.24758
 Alpha virt. eigenvalues --    0.25159   0.29183   0.30908   0.43736   0.46861

 Mulliken charges:
               1
     1  C   -0.049971
     2  C   -0.100652
     3  C   -0.105251
     4  C   -0.084812
     5  C   -0.085997
     6  C   -0.112672
     7  H    0.078441
     8  H    0.085479
     9  H    0.100284
    10  H    0.073702
    11  H    0.103039
    12  H    0.098409
 Sum of Mulliken charges =  -0.00000

 Dipole moment (field-independent basis, Debye):
    X=             -0.0242    Y=              0.2022    Z=              0.0873  Tot=              0.2216
 Quadrupole moment (field-independent basis, Debye-Ang):
   XX=            -30.3842   YY=            -32.3903   ZZ=            -39.3671
   XY=              0.2419   XZ=              0.3722   YZ=             -0.0959

 Normal termination of Gaussian 16 at Fri Nov 10 19:52:54 2023.
