 Gaussian 16, Revision B.01,
 Gaussian 16:  EM64L-G16RevB.01 20-Dec-2017

 ---------------------------------
 # TD=(NStates=1) B3LYP/6-31G(d,p)
 ---------------------------------

 -------
 EMISPCT
 -------
 Symbolic Z-matrix:
 Charge =  0 Multiplicity = 1

                         Standard orientation:
 ---------------------------------------------------------------------
 Center     Atomic      Atomic             Coordinates (Angstroms)
 Number     Number       Type             X           Y           Z
 ---------------------------------------------------------------------
      1          6           0        0.541400   -1.291026    0.059395
      2          6           0        1.466297   -0.173813    0.039597
      3          6           0        0.849872    1.113455   -0.062500
      4          6           0       -0.545631    1.287857    0.002878
      5          6           0       -1.419833    0.185658    0.022082
      6          6           0       -0.891634   -1.118628   -0.082827
      7          1           0        0.898309   -2.364051   -0.066279
      8          1           0       -1.608936   -1.898757    0.197804
      9          1           0       -2.553866    0.340558   -0.169395
     10          1           0       -0.785368    2.363476    0.311307
     11          1           0        1.427198    1.991827   -0.085422
     12          1           0        2.619838   -0.454077   -0.059768
 ---------------------------------------------------------------------

 SCF Done:  E(RB3LYP) =  -232.215097237     A.U. after   13 cycles

 Excitation energies and oscillator strengths:

 Excited State   1:      Singlet-A      5.0660 eV  244.74 nm  f=0.0017  <S**2>=0.000
      20 -> 22        -0.12726
      20 -> 23         0.43516
      21 -> 22         0.52407
      21 -> 23         0.13898
 This state for optimization and/or second-order correction.
 Total Energy, E(TD-HF/TD-DFT) =  -232.028924901
 Copying the excited state density for this state as the 1-particle RhoCI density.

 The electronic state is 1-A.
 Alpha  occ. eigenvalues --  -10.21240 -10.20548 -10.20195 -10.19774 -10.19640
 Alpha  occ. eigenvalues --  -10.19440  -0.83632  -0.73754  -0.72904  -0.59408
 Alpha  occ. eigenvalues --   -0.58863  -0.50307  -0.45694  -0.42972  -0.41258
 Alpha  occ. eigenvalues --   -0.40188  -0.35778  -0.33864  -0.32749  -0.24864
 Alpha  occ. eigenvalues --   -0.24052
 Alpha virt. eigenvalues --   -0.01287  -0.01154   0.07600   0.11240   0.13632
 Alpha virt. eigenvalues --    0.14451   0.15786   0.16953   0.18314   0.27370
 Alpha virt. eigenvalues --    0.28273   0.30150   0.30867   0.45845   0.47848

 Mulliken charges:
               1
     1  C   -0.104035
     2  C   -0.082677
     3  C   -0.088811
     4  C   -0.079387
     5  C   -0.098541
     6  C   -0.091472
     7  H    0.086958
     8  H    0.097110
     9  H    0.088418
    10  H    0.089582
    11  H    0.088172
    12  H    0.094683
 Sum of Mulliken charges =  -0.00000

 Dipole moment (field-independent basis, Debye):
    X=              0.0971    Y=              0.0832    Z=              0.0915  Tot=              0.1572
 Quadrupole moment (field-independent basis, Debye-Ang):
   XX=            -31.7465   YY=            -31.9172   ZZ=            -38.9448
   XY=              0.2033   XZ=             -0.4225   YZ=              0.2550

 Normal termination of Gaussian 16 at Fri Nov 10 20:55:48 2023.
