 Gaussian 16, Revision B.01,
 Gaussian 16:  EM64L-G16RevB.01 20-Dec-2017

 ---------------------------------
 # TD=(NStates=1) B3LYP/6-31G(d,p)
 ---------------------------------

 -------
 EMISPCT
 -------
 Symbolic Z-matrix:
 Charge =  0 Multiplicity = 1

                         Standard orientation:
 ---------------------------------------------------------------------
 Center     Atomic      Atomic             Coordinates (Angstroms)
 Number     Number       Type             X           Y           Z
 ---------------------------------------------------------------------
      1          6           0       -0.580276   -1.274857    0.010892
      2          6           0        0.861229   -1.183537   -0.061028
      3          6           0        1.447744    0.195165    0.031957
      4          6           0        0.556647    1.282183   -0.003451
      5          6           0       -0.876805    1.176126   -0.086461
      6          6           0       -1.456482   -0.205430    0.018926
      7          1           0       -0.990515   -2.310333   -0.109327
      8          1           0       -2.566627   -0.408394    0.389570
      9          1           0       -1.379891    2.219290   -0.055354
     10          1           0        1.032543    2.241632    0.113187
     11          1           0        2.543170    0.305668    0.191667
     12          1           0        1.648979   -1.985766    0.005246
 ---------------------------------------------------------------------

 SCF Done:  E(RB3LYP) =  -232.209185278     A.U. after   13 cycles

 Excitation energies and oscillator strengths:

 Excited State   1:      Singlet-A      4.9905 eV  248.44 nm  f=0.0024  <S**2>=0.000
      20 -> 22         0.54498
      21 -> 23         0.44794
 This state for optimization and/or second-order correction.
 Total Energy, E(TD-HF/TD-DFT) =  -232.025788903
 Copying the excited state density for this state as the 1-particle RhoCI density.

 The electronic state is 1-A.
 Alpha  occ. eigenvalues --  -10.21500 -10.21452 -10.20847 -10.20105 -10.20099
 Alpha  occ. eigenvalues --  -10.19397  -0.82625  -0.73817  -0.71831  -0.59819
 Alpha  occ. eigenvalues --   -0.57891  -0.50005  -0.45803  -0.42899  -0.41080
 Alpha  occ. eigenvalues --   -0.40235  -0.35650  -0.34103  -0.31941  -0.24856
 Alpha  occ. eigenvalues --   -0.23398
 Alpha virt. eigenvalues --   -0.02534   0.00197   0.07607   0.11572   0.12742
 Alpha virt. eigenvalues --    0.14240   0.14983   0.16349   0.18512   0.26056
 Alpha virt. eigenvalues --    0.27047   0.28328   0.31544   0.47425   0.48149

 Mulliken charges:
               1
     1  C   -0.085793
     2  C   -0.096624
     3  C   -0.093917
     4  C   -0.076328
     5  C   -0.104401
     6  C   -0.102236
     7  H    0.089715
     8  H    0.097651
     9  H    0.097138
    10  H    0.085654
    11  H    0.092589
    12  H    0.096552
 Sum of Mulliken charges =  -0.00000

 Dipole moment (field-independent basis, Debye):
    X=              0.2142    Y=              0.0628    Z=              0.3383  Tot=              0.4053
 Quadrupole moment (field-independent basis, Debye-Ang):
   XX=            -31.4187   YY=            -31.6446   ZZ=            -39.1988
   XY=             -0.0823   XZ=             -0.1620   YZ=              0.2268

 Normal termination of Gaussian 16 at Fri Nov 10 22:10:40 2023.
