 Gaussian 16, Revision B.01,
 Gaussian 16:  EM64L-G16RevB.01 20-Dec-2017

 ---------------------------------
 # TD=(NStates=1) B3LYP/6-31G(d,p)
 ---------------------------------

 -------
 EMISPCT
 -------
 Symbolic Z-matrix:
 Charge =  0 Multiplicity = 1

                         Standard orientation:
 ---------------------------------------------------------------------
 Center     Atomic      Atomic             Coordinates (Angstroms)
 Number     Number       Type             X           Y           Z
 ---------------------------------------------------------------------
      1          6           0       -1.443671    0.175435   -0.017955
      2          6           0       -0.883268   -1.075174   -0.063611
      3          6           0        0.473767   -1.305992    0.071508
      4          6           0        1.450657   -0.234066   -0.041532
      5          6           0        0.905222    1.096728   -0.092066
      6          6           0       -0.474740    1.321614    0.077042
      7          1           0       -2.565583    0.620294   -0.237658
      8          1           0       -0.866992    2.321035    0.393719
      9          1           0        1.529080    1.950049    0.020034
     10          1           0        2.609714   -0.486587   -0.075664
     11          1           0        0.692579   -2.402597    0.333009
     12          1           0       -1.566597   -1.873466   -0.033755
 ---------------------------------------------------------------------

 SCF Done:  E(RB3LYP) =  -232.204589430     A.U. after   14 cycles

 Excitation energies and oscillator strengths:

 Excited State   1:      Singlet-A      5.1158 eV  242.36 nm  f=0.0025  <S**2>=0.000
      20 -> 22         0.49253
      21 -> 22        -0.17513
      21 -> 23         0.46800
 This state for optimization and/or second-order correction.
 Total Energy, E(TD-HF/TD-DFT) =  -232.016588288
 Copying the excited state density for this state as the 1-particle RhoCI density.

 The electronic state is 1-A.
 Alpha  occ. eigenvalues --  -10.21466 -10.20845 -10.20120 -10.19993 -10.19508
 Alpha  occ. eigenvalues --  -10.18561  -0.83620  -0.74401  -0.72067  -0.59398
 Alpha  occ. eigenvalues --   -0.58768  -0.50302  -0.45547  -0.43229  -0.41742
 Alpha  occ. eigenvalues --   -0.39843  -0.36555  -0.33220  -0.32244  -0.25258
 Alpha  occ. eigenvalues --   -0.23316
 Alpha virt. eigenvalues --   -0.01960   0.00239   0.07640   0.10810   0.12877
 Alpha virt. eigenvalues --    0.14539   0.15032   0.18039   0.18049   0.26111
 Alpha virt. eigenvalues --    0.28558   0.29900   0.32856   0.46822   0.50343

 Mulliken charges:
               1
     1  C   -0.090911
     2  C   -0.078661
     3  C   -0.086328
     4  C   -0.104193
     5  C   -0.082016
     6  C   -0.102957
     7  H    0.090869
     8  H    0.090992
     9  H    0.090073
    10  H    0.096496
    11  H    0.087918
    12  H    0.088719
 Sum of Mulliken charges =  -0.00000

 Dipole moment (field-independent basis, Debye):
    X=             -0.0054    Y=              0.0532    Z=              0.2345  Tot=              0.2405
 Quadrupole moment (field-independent basis, Debye-Ang):
   XX=            -31.7121   YY=            -31.6867   ZZ=            -38.8926
   XY=             -0.1806   XZ=              0.2809   YZ=              0.0819

 Normal termination of Gaussian 16 at Fri Nov 10 19:45:19 2023.
