 Gaussian 16, Revision B.01,
 Gaussian 16:  EM64L-G16RevB.01 20-Dec-2017

 ---------------------------------
 # TD=(NStates=1) B3LYP/6-31G(d,p)
 ---------------------------------

 -------
 EMISPCT
 -------
 Symbolic Z-matrix:
 Charge =  0 Multiplicity = 1

                         Standard orientation:
 ---------------------------------------------------------------------
 Center     Atomic      Atomic             Coordinates (Angstroms)
 Number     Number       Type             X           Y           Z
 ---------------------------------------------------------------------
      1          6           0        0.449867   -1.360481    0.006930
      2          6           0       -1.015656   -1.025747    0.018822
      3          6           0       -1.426898    0.325902   -0.055194
      4          6           0       -0.383130    1.348391   -0.021725
      5          6           0        0.996663    1.019806   -0.002495
      6          6           0        1.459719   -0.282132   -0.006232
      7          1           0        0.670633   -2.330581   -0.140869
      8          1           0        2.496101   -0.790865    0.140207
      9          1           0        1.495923    1.798481   -0.063635
     10          1           0       -0.630540    2.438445    0.247931
     11          1           0       -2.583044    0.593424    0.032853
     12          1           0       -1.932458   -1.863339    0.142873
 ---------------------------------------------------------------------

 SCF Done:  E(RB3LYP) =  -232.170033691     A.U. after   13 cycles

 Excitation energies and oscillator strengths:

 Excited State   1:      Singlet-A      5.0254 eV  246.71 nm  f=0.0014  <S**2>=0.000
      20 -> 22         0.47134
      21 -> 22         0.14463
      21 -> 23         0.50028
 This state for optimization and/or second-order correction.
 Total Energy, E(TD-HF/TD-DFT) =  -231.985353266
 Copying the excited state density for this state as the 1-particle RhoCI density.

 The electronic state is 1-A.
 Alpha  occ. eigenvalues --  -10.21603 -10.21009 -10.20923 -10.20427 -10.19934
 Alpha  occ. eigenvalues --  -10.18095  -0.83050  -0.73949  -0.72572  -0.59795
 Alpha  occ. eigenvalues --   -0.59187  -0.51051  -0.45855  -0.43275  -0.41167
 Alpha  occ. eigenvalues --   -0.40087  -0.34886  -0.34662  -0.32409  -0.25114
 Alpha  occ. eigenvalues --   -0.23242
 Alpha virt. eigenvalues --   -0.01958  -0.00287   0.06925   0.11007   0.12998
 Alpha virt. eigenvalues --    0.13584   0.15406   0.17750   0.19599   0.26170
 Alpha virt. eigenvalues --    0.27250   0.29673   0.31065   0.47078   0.48404

 Mulliken charges:
               1
     1  C   -0.102588
     2  C   -0.087756
     3  C   -0.085117
     4  C   -0.111021
     5  C   -0.042840
     6  C   -0.086127
     7  H    0.092531
     8  H    0.098856
     9  H    0.068423
    10  H    0.089191
    11  H    0.088079
    12  H    0.078369
 Sum of Mulliken charges =  -0.00000

 Dipole moment (field-independent basis, Debye):
    X=              0.0739    Y=              0.0069    Z=              0.2026  Tot=              0.2158
 Quadrupole moment (field-independent basis, Debye-Ang):
   XX=            -31.6464   YY=            -31.4374   ZZ=            -39.0964
   XY=             -0.2805   XZ=             -0.2779   YZ=              0.4138

 Normal termination of Gaussian 16 at Fri Nov 10 19:59:34 2023.
