 Gaussian 16, Revision B.01,
 Gaussian 16:  EM64L-G16RevB.01 20-Dec-2017

 ---------------------------------
 # TD=(NStates=1) B3LYP/6-31G(d,p)
 ---------------------------------

 -------
 EMISPCT
 -------
 Symbolic Z-matrix:
 Charge =  0 Multiplicity = 1

                         Standard orientation:
 ---------------------------------------------------------------------
 Center     Atomic      Atomic             Coordinates (Angstroms)
 Number     Number       Type             X           Y           Z
 ---------------------------------------------------------------------
      1          6           0        1.428030    0.075661   -0.062659
      2          6           0        0.825227   -1.183396    0.080593
      3          6           0       -0.679391   -1.336651   -0.067528
      4          6           0       -1.416396   -0.094923    0.089059
      5          6           0       -0.788778    1.239074   -0.010228
      6          6           0        0.633647    1.301702   -0.023809
      7          1           0        2.460575    0.171529    0.023545
      8          1           0        1.139420    2.252934    0.073132
      9          1           0       -1.507484    2.023516    0.022299
     10          1           0       -2.414849   -0.201838   -0.089432
     11          1           0       -1.352255   -2.160935   -0.146396
     12          1           0        1.660556   -2.094012    0.084283
 ---------------------------------------------------------------------

 SCF Done:  E(RB3LYP) =  -232.199799843     A.U. after   13 cycles

 Excitation energies and oscillator strengths:

 Excited State   1:      Singlet-A      4.9498 eV  250.48 nm  f=0.0001  <S**2>=0.000
      20 -> 22         0.50032
      21 -> 23         0.49456
 This state for optimization and/or second-order correction.
 Total Energy, E(TD-HF/TD-DFT) =  -232.017897695
 Copying the excited state density for this state as the 1-particle RhoCI density.

 The electronic state is 1-A.
 Alpha  occ. eigenvalues --  -10.21963 -10.20867 -10.20141 -10.19959 -10.19460
 Alpha  occ. eigenvalues --  -10.19155  -0.82305  -0.73628  -0.72455  -0.60142
 Alpha  occ. eigenvalues --   -0.58796  -0.50657  -0.47063  -0.43292  -0.41308
 Alpha  occ. eigenvalues --   -0.40143  -0.35019  -0.33989  -0.32849  -0.24384
 Alpha  occ. eigenvalues --   -0.23737
 Alpha virt. eigenvalues --   -0.01780  -0.00909   0.08568   0.12243   0.12797
 Alpha virt. eigenvalues --    0.14438   0.15564   0.18227   0.19859   0.26043
 Alpha virt. eigenvalues --    0.27138   0.29264   0.30000   0.43578   0.48049

 Mulliken charges:
               1
     1  C   -0.071889
     2  C   -0.096583
     3  C   -0.097279
     4  C   -0.097660
     5  C   -0.082274
     6  C   -0.092618
     7  H    0.093597
     8  H    0.090732
     9  H    0.094321
    10  H    0.084652
    11  H    0.101037
    12  H    0.073962
 Sum of Mulliken charges =  -0.00000

 Dipole moment (field-independent basis, Debye):
    X=             -0.1076    Y=              0.1576    Z=             -0.0436  Tot=              0.1958
 Quadrupole moment (field-independent basis, Debye-Ang):
   XX=            -30.5243   YY=            -32.1796   ZZ=            -39.1501
   XY=              0.4496   XZ=              0.5634   YZ=              0.3854

 Normal termination of Gaussian 16 at Fri Nov 10 20:01:41 2023.
