 Gaussian 16, Revision B.01,
 Gaussian 16:  EM64L-G16RevB.01 20-Dec-2017

 ---------------------------------
 # TD=(NStates=1) B3LYP/6-31G(d,p)
 ---------------------------------

 -------
 EMISPCT
 -------
 Symbolic Z-matrix:
 Charge =  0 Multiplicity = 1

                         Standard orientation:
 ---------------------------------------------------------------------
 Center     Atomic      Atomic             Coordinates (Angstroms)
 Number     Number       Type             X           Y           Z
 ---------------------------------------------------------------------
      1          6           0        1.006161   -0.989980    0.062854
      2          6           0       -0.391791   -1.293923   -0.043657
      3          6           0       -1.461037   -0.353976   -0.018314
      4          6           0       -1.024872    1.010150    0.011881
      5          6           0        0.435597    1.268687   -0.006534
      6          6           0        1.404382    0.324766   -0.068884
      7          1           0        1.686608   -1.879192    0.127071
      8          1           0        2.456127    0.757763    0.065567
      9          1           0        0.648679    2.445288    0.009460
     10          1           0       -1.601138    1.715467    0.143152
     11          1           0       -2.492291   -0.513456    0.054818
     12          1           0       -0.508626   -2.320215   -0.024145
 ---------------------------------------------------------------------

 SCF Done:  E(RB3LYP) =  -232.194233786     A.U. after   14 cycles

 Excitation energies and oscillator strengths:

 Excited State   1:      Singlet-A      5.2605 eV  235.69 nm  f=0.0059  <S**2>=0.000
      20 -> 22         0.39492
      20 -> 23         0.19729
      21 -> 22        -0.31012
      21 -> 23         0.45677
 This state for optimization and/or second-order correction.
 Total Energy, E(TD-HF/TD-DFT) =  -232.000915345
 Copying the excited state density for this state as the 1-particle RhoCI density.

 The electronic state is 1-A.
 Alpha  occ. eigenvalues --  -10.19867 -10.19707 -10.19595 -10.19255 -10.18897
 Alpha  occ. eigenvalues --  -10.18147  -0.84100  -0.74904  -0.72989  -0.60931
 Alpha  occ. eigenvalues --   -0.59272  -0.51811  -0.46820  -0.43759  -0.42867
 Alpha  occ. eigenvalues --   -0.39222  -0.35694  -0.35155  -0.32209  -0.25465
 Alpha  occ. eigenvalues --   -0.23467
 Alpha virt. eigenvalues --   -0.00979   0.00089   0.08302   0.13421   0.14334
 Alpha virt. eigenvalues --    0.15181   0.16561   0.18710   0.20454   0.27591
 Alpha virt. eigenvalues --    0.28528   0.30733   0.32180   0.47091   0.49730

 Mulliken charges:
               1
     1  C   -0.097159
     2  C   -0.090071
     3  C   -0.074707
     4  C   -0.051269
     5  C   -0.088379
     6  C   -0.077195
     7  H    0.090524
     8  H    0.088641
     9  H    0.069779
    10  H    0.058754
    11  H    0.093125
    12  H    0.077956
 Sum of Mulliken charges =  -0.00000

 Dipole moment (field-independent basis, Debye):
    X=             -0.1664    Y=             -0.0143    Z=              0.2370  Tot=              0.2900
 Quadrupole moment (field-independent basis, Debye-Ang):
   XX=            -31.2490   YY=            -31.7584   ZZ=            -38.6436
   XY=             -0.5262   XZ=             -0.0100   YZ=              0.1298

 Normal termination of Gaussian 16 at Fri Nov 10 22:37:21 2023.
