 Gaussian 16, Revision B.01,
 Gaussian 16:  EM64L-G16RevB.01 20-Dec-2017

 ---------------------------------
 # TD=(NStates=1) B3LYP/6-31G(d,p)
 ---------------------------------

 -------
 EMISPCT
 -------
 Symbolic Z-matrix:
 Charge =  0 Multiplicity = 1

                         Standard orientation:
 ---------------------------------------------------------------------
 Center     Atomic      Atomic             Coordinates (Angstroms)
 Number     Number       Type             X           Y           Z
 ---------------------------------------------------------------------
      1          6           0        1.080047   -1.005653    0.111480
      2          6           0       -0.392838   -1.328720   -0.113952
      3          6           0       -1.398101   -0.335218    0.048052
      4          6           0       -1.047933    0.965255   -0.015476
      5          6           0        0.338951    1.313683    0.005590
      6          6           0        1.448420    0.430862    0.009352
      7          1           0        1.827087   -1.720944   -0.047433
      8          1           0        2.517639    0.490934   -0.169135
      9          1           0        0.466912    2.568312    0.001234
     10          1           0       -1.816106    1.599631   -0.170713
     11          1           0       -2.416569   -0.873318    0.293546
     12          1           0       -0.750237   -2.305875   -0.177772
 ---------------------------------------------------------------------

 SCF Done:  E(RB3LYP) =  -232.175837109     A.U. after   13 cycles

 Excitation energies and oscillator strengths:

 Excited State   1:      Singlet-A      4.8533 eV  255.46 nm  f=0.0036  <S**2>=0.000
      20 -> 22         0.40875
      20 -> 23         0.23445
      21 -> 22        -0.35464
      21 -> 23         0.38915
 This state for optimization and/or second-order correction.
 Total Energy, E(TD-HF/TD-DFT) =  -231.997481648
 Copying the excited state density for this state as the 1-particle RhoCI density.

 The electronic state is 1-A.
 Alpha  occ. eigenvalues --  -10.21572 -10.20758 -10.20422 -10.19601 -10.19511
 Alpha  occ. eigenvalues --  -10.18661  -0.83502  -0.74436  -0.72165  -0.60662
 Alpha  occ. eigenvalues --   -0.58448  -0.51248  -0.46430  -0.44338  -0.41632
 Alpha  occ. eigenvalues --   -0.39322  -0.36074  -0.33401  -0.32299  -0.24514
 Alpha  occ. eigenvalues --   -0.23280
 Alpha virt. eigenvalues --   -0.01935  -0.00835   0.07411   0.11592   0.12836
 Alpha virt. eigenvalues --    0.13645   0.16975   0.18411   0.19033   0.25813
 Alpha virt. eigenvalues --    0.27582   0.29341   0.31873   0.46084   0.48327

 Mulliken charges:
               1
     1  C   -0.112282
     2  C   -0.086942
     3  C   -0.083957
     4  C   -0.062610
     5  C   -0.091194
     6  C   -0.090201
     7  H    0.092867
     8  H    0.109301
     9  H    0.060581
    10  H    0.092346
    11  H    0.090357
    12  H    0.081736
 Sum of Mulliken charges =  -0.00000

 Dipole moment (field-independent basis, Debye):
    X=             -0.0777    Y=             -0.2800    Z=             -0.2085  Tot=              0.3576
 Quadrupole moment (field-independent basis, Debye-Ang):
   XX=            -30.6360   YY=            -32.7416   ZZ=            -38.9062
   XY=             -0.4257   XZ=             -0.6411   YZ=             -0.0915

 Normal termination of Gaussian 16 at Fri Nov 10 20:20:32 2023.
