 Gaussian 16, Revision B.01,
 Gaussian 16:  EM64L-G16RevB.01 20-Dec-2017

 ---------------------------------
 # TD=(NStates=1) B3LYP/6-31G(d,p)
 ---------------------------------

 -------
 EMISPCT
 -------
 Symbolic Z-matrix:
 Charge =  0 Multiplicity = 1

                         Standard orientation:
 ---------------------------------------------------------------------
 Center     Atomic      Atomic             Coordinates (Angstroms)
 Number     Number       Type             X           Y           Z
 ---------------------------------------------------------------------
      1          6           0        0.702855   -1.245618   -0.065970
      2          6           0       -0.734054   -1.175561    0.120399
      3          6           0       -1.416993    0.031969   -0.007360
      4          6           0       -0.695709    1.241892   -0.013209
      5          6           0        0.804766    1.197117   -0.003399
      6          6           0        1.424474   -0.102845   -0.042209
      7          1           0        1.058347   -2.097996    0.030052
      8          1           0        2.404156    0.012427    0.029181
      9          1           0        1.291563    2.208119    0.289193
     10          1           0       -1.253865    2.222304   -0.073545
     11          1           0       -2.604377    0.082149   -0.177589
     12          1           0       -1.407858   -2.108724   -0.026803
 ---------------------------------------------------------------------

 SCF Done:  E(RB3LYP) =  -232.184098509     A.U. after   14 cycles

 Excitation energies and oscillator strengths:

 Excited State   1:      Singlet-A      5.1702 eV  239.81 nm  f=0.0003  <S**2>=0.000
      20 -> 22         0.51620
      21 -> 23        -0.48076
 This state for optimization and/or second-order correction.
 Total Energy, E(TD-HF/TD-DFT) =  -231.994098626
 Copying the excited state density for this state as the 1-particle RhoCI density.

 The electronic state is 1-A.
 Alpha  occ. eigenvalues --  -10.20824 -10.20210 -10.20075 -10.19937 -10.18522
 Alpha  occ. eigenvalues --  -10.17999  -0.83880  -0.74762  -0.72591  -0.60798
 Alpha  occ. eigenvalues --   -0.58751  -0.51635  -0.46027  -0.44149  -0.41805
 Alpha  occ. eigenvalues --   -0.40035  -0.35173  -0.34551  -0.32506  -0.25345
 Alpha  occ. eigenvalues --   -0.23511
 Alpha virt. eigenvalues --   -0.01986   0.00291   0.08001   0.12074   0.13882
 Alpha virt. eigenvalues --    0.14731   0.16725   0.18068   0.19391   0.26656
 Alpha virt. eigenvalues --    0.28191   0.30489   0.32765   0.47264   0.49232

 Mulliken charges:
               1
     1  C   -0.046287
     2  C   -0.111925
     3  C   -0.070052
     4  C   -0.093742
     5  C   -0.116209
     6  C   -0.063065
     7  H    0.072411
     8  H    0.083437
     9  H    0.095845
    10  H    0.086424
    11  H    0.081964
    12  H    0.081198
 Sum of Mulliken charges =  -0.00000

 Dipole moment (field-independent basis, Debye):
    X=              0.0918    Y=              0.0423    Z=              0.0543  Tot=              0.1147
 Quadrupole moment (field-independent basis, Debye-Ang):
   XX=            -31.6157   YY=            -31.6152   ZZ=            -38.7352
   XY=             -0.0114   XZ=              0.8741   YZ=              0.4495

 Normal termination of Gaussian 16 at Fri Nov 10 23:00:12 2023.
