 Gaussian 16, Revision B.01,
 Gaussian 16:  EM64L-G16RevB.01 20-Dec-2017

 ---------------------------------
 # TD=(NStates=1) B3LYP/6-31G(d,p)
 ---------------------------------

 -------
 EMISPCT
 -------
 Symbolic Z-matrix:
 Charge =  0 Multiplicity = 1

                         Standard orientation:
 ---------------------------------------------------------------------
 Center     Atomic      Atomic             Coordinates (Angstroms)
 Number     Number       Type             X           Y           Z
 ---------------------------------------------------------------------
      1          6           0        0.575449   -1.296841    0.012293
      2          6           0        1.421098   -0.151044   -0.202980
      3          6           0        0.838199    1.129649    0.133487
      4          6           0       -0.591912    1.283546   -0.030717
      5          6           0       -1.407380    0.132566   -0.003473
      6          6           0       -0.844999   -1.079699    0.044851
      7          1           0        0.885263   -2.191877    0.351003
      8          1           0       -1.542140   -1.881072    0.062692
      9          1           0       -2.428056    0.198076   -0.143042
     10          1           0       -1.011927    2.208216   -0.307133
     11          1           0        1.543880    1.896711    0.553577
     12          1           0        2.610252   -0.339122   -0.237866
 ---------------------------------------------------------------------

 SCF Done:  E(RB3LYP) =  -232.194027289     A.U. after   13 cycles

 Excitation energies and oscillator strengths:

 Excited State   1:      Singlet-A      4.6484 eV  266.72 nm  f=0.0067  <S**2>=0.000
      20 -> 22        -0.37087
      21 -> 22        -0.16298
      21 -> 23         0.57123
 This state for optimization and/or second-order correction.
 Total Energy, E(TD-HF/TD-DFT) =  -232.023201184
 Copying the excited state density for this state as the 1-particle RhoCI density.

 The electronic state is 1-A.
 Alpha  occ. eigenvalues --  -10.21192 -10.20677 -10.19062 -10.18971 -10.17685
 Alpha  occ. eigenvalues --  -10.17526  -0.83975  -0.74101  -0.73081  -0.60587
 Alpha  occ. eigenvalues --   -0.58457  -0.51540  -0.47110  -0.42797  -0.41854
 Alpha  occ. eigenvalues --   -0.41059  -0.35725  -0.35131  -0.32936  -0.24571
 Alpha  occ. eigenvalues --   -0.22114
 Alpha virt. eigenvalues --   -0.01701  -0.00988   0.08702   0.13091   0.13584
 Alpha virt. eigenvalues --    0.15519   0.16634   0.18215   0.20676   0.28634
 Alpha virt. eigenvalues --    0.28872   0.31306   0.31709   0.46899   0.48714

 Mulliken charges:
               1
     1  C   -0.082668
     2  C   -0.100397
     3  C   -0.101055
     4  C   -0.103470
     5  C   -0.054364
     6  C   -0.084977
     7  H    0.095766
     8  H    0.075908
     9  H    0.080516
    10  H    0.093318
    11  H    0.100220
    12  H    0.081204
 Sum of Mulliken charges =  -0.00000

 Dipole moment (field-independent basis, Debye):
    X=              0.0093    Y=             -0.0244    Z=              0.2072  Tot=              0.2088
 Quadrupole moment (field-independent basis, Debye-Ang):
   XX=            -31.3778   YY=            -32.2933   ZZ=            -38.1817
   XY=             -0.0129   XZ=              1.0534   YZ=             -0.4696

 Normal termination of Gaussian 16 at Fri Nov 10 23:04:58 2023.
