 Gaussian 16, Revision B.01,
 Gaussian 16:  EM64L-G16RevB.01 20-Dec-2017

 ---------------------------------
 # TD=(NStates=1) B3LYP/6-31G(d,p)
 ---------------------------------

 -------
 EMISPCT
 -------
 Symbolic Z-matrix:
 Charge =  0 Multiplicity = 1

                         Standard orientation:
 ---------------------------------------------------------------------
 Center     Atomic      Atomic             Coordinates (Angstroms)
 Number     Number       Type             X           Y           Z
 ---------------------------------------------------------------------
      1          6           0       -1.136903    0.842580    0.060929
      2          6           0        0.215145    1.391008   -0.012005
      3          6           0        1.341653    0.563566   -0.005715
      4          6           0        1.127553   -0.892782   -0.027877
      5          6           0       -0.194318   -1.349669   -0.029171
      6          6           0       -1.329839   -0.527835   -0.003689
      7          1           0       -1.963021    1.541754    0.314638
      8          1           0       -2.236919   -0.974073   -0.251706
      9          1           0       -0.439794   -2.481328   -0.015436
     10          1           0        1.870360   -1.618360    0.341459
     11          1           0        2.399387    0.773209    0.035392
     12          1           0        0.230238    2.597600   -0.319176
 ---------------------------------------------------------------------

 SCF Done:  E(RB3LYP) =  -232.210076894     A.U. after   13 cycles

 Excitation energies and oscillator strengths:

 Excited State   1:      Singlet-A      5.0715 eV  244.47 nm  f=0.0029  <S**2>=0.000
      20 -> 22         0.46024
      20 -> 23        -0.23393
      21 -> 22        -0.31271
      21 -> 23        -0.36738
 This state for optimization and/or second-order correction.
 Total Energy, E(TD-HF/TD-DFT) =  -232.023703104
 Copying the excited state density for this state as the 1-particle RhoCI density.

 The electronic state is 1-A.
 Alpha  occ. eigenvalues --  -10.21329 -10.20154 -10.20121 -10.19544 -10.19411
 Alpha  occ. eigenvalues --  -10.18612  -0.83904  -0.74132  -0.72913  -0.60140
 Alpha  occ. eigenvalues --   -0.58627  -0.50583  -0.46214  -0.43441  -0.41866
 Alpha  occ. eigenvalues --   -0.39731  -0.36750  -0.33542  -0.32096  -0.24615
 Alpha  occ. eigenvalues --   -0.24156
 Alpha virt. eigenvalues --   -0.01755  -0.00374   0.07882   0.11569   0.13007
 Alpha virt. eigenvalues --    0.14868   0.15831   0.17562   0.18916   0.26541
 Alpha virt. eigenvalues --    0.28929   0.31183   0.32118   0.46868   0.49318

 Mulliken charges:
               1
     1  C   -0.097914
     2  C   -0.089367
     3  C   -0.093784
     4  C   -0.102174
     5  C   -0.088597
     6  C   -0.064291
     7  H    0.095561
     8  H    0.093458
     9  H    0.074370
    10  H    0.095944
    11  H    0.098552
    12  H    0.078242
 Sum of Mulliken charges =  -0.00000

 Dipole moment (field-independent basis, Debye):
    X=             -0.1632    Y=             -0.0938    Z=              0.0931  Tot=              0.2100
 Quadrupole moment (field-independent basis, Debye-Ang):
   XX=            -31.4959   YY=            -32.4153   ZZ=            -38.6424
   XY=             -0.2395   XZ=              0.5709   YZ=             -0.4646

 Normal termination of Gaussian 16 at Fri Nov 10 21:20:13 2023.
