 Gaussian 16, Revision B.01,
 Gaussian 16:  EM64L-G16RevB.01 20-Dec-2017

 ---------------------------------
 # TD=(NStates=1) B3LYP/6-31G(d,p)
 ---------------------------------

 -------
 EMISPCT
 -------
 Symbolic Z-matrix:
 Charge =  0 Multiplicity = 1

                         Standard orientation:
 ---------------------------------------------------------------------
 Center     Atomic      Atomic             Coordinates (Angstroms)
 Number     Number       Type             X           Y           Z
 ---------------------------------------------------------------------
      1          6           0       -0.831151   -1.209803    0.045856
      2          6           0       -1.469917    0.158011   -0.051337
      3          6           0       -0.617430    1.300492    0.049327
      4          6           0        0.815059    1.115191   -0.109636
      5          6           0        1.458065   -0.146186   -0.030792
      6          6           0        0.590049   -1.255564    0.002875
      7          1           0       -1.434435   -2.007925   -0.102264
      8          1           0        1.165954   -2.036241    0.155243
      9          1           0        2.538434   -0.120617    0.140214
     10          1           0        1.559432    1.983214    0.147739
     11          1           0       -1.020759    2.144019    0.266575
     12          1           0       -2.476671    0.264710   -0.045264
 ---------------------------------------------------------------------

 SCF Done:  E(RB3LYP) =  -232.185135914     A.U. after   13 cycles

 Excitation energies and oscillator strengths:

 Excited State   1:      Singlet-A      4.9899 eV  248.47 nm  f=0.0013  <S**2>=0.000
      20 -> 22         0.52049
      21 -> 22        -0.12145
      21 -> 23        -0.45258
 This state for optimization and/or second-order correction.
 Total Energy, E(TD-HF/TD-DFT) =  -232.001758662
 Copying the excited state density for this state as the 1-particle RhoCI density.

 The electronic state is 1-A.
 Alpha  occ. eigenvalues --  -10.20054 -10.19759 -10.19567 -10.19283 -10.18686
 Alpha  occ. eigenvalues --  -10.18334  -0.83038  -0.74499  -0.72760  -0.61071
 Alpha  occ. eigenvalues --   -0.59768  -0.51926  -0.47791  -0.43719  -0.42639
 Alpha  occ. eigenvalues --   -0.40335  -0.35573  -0.34374  -0.32211  -0.24274
 Alpha  occ. eigenvalues --   -0.23827
 Alpha virt. eigenvalues --   -0.01753  -0.00495   0.09642   0.12674   0.15262
 Alpha virt. eigenvalues --    0.16029   0.17320   0.19019   0.20289   0.26617
 Alpha virt. eigenvalues --    0.28121   0.30078   0.31651   0.46269   0.46569

 Mulliken charges:
               1
     1  C   -0.089486
     2  C   -0.100425
     3  C   -0.057811
     4  C   -0.093939
     5  C   -0.093508
     6  C   -0.066840
     7  H    0.092167
     8  H    0.076165
     9  H    0.100778
    10  H    0.067703
    11  H    0.078688
    12  H    0.086508
 Sum of Mulliken charges =  -0.00000

 Dipole moment (field-independent basis, Debye):
    X=             -0.0385    Y=             -0.0254    Z=              0.3534  Tot=              0.3564
 Quadrupole moment (field-independent basis, Debye-Ang):
   XX=            -30.2572   YY=            -32.5246   ZZ=            -38.5510
   XY=             -0.2339   XZ=              0.6568   YZ=              0.6570

 Normal termination of Gaussian 16 at Fri Nov 10 21:51:01 2023.
