 Gaussian 16, Revision B.01,
 Gaussian 16:  EM64L-G16RevB.01 20-Dec-2017

 ---------------------------------
 # TD=(NStates=1) B3LYP/6-31G(d,p)
 ---------------------------------

 -------
 EMISPCT
 -------
 Symbolic Z-matrix:
 Charge =  0 Multiplicity = 1

                         Standard orientation:
 ---------------------------------------------------------------------
 Center     Atomic      Atomic             Coordinates (Angstroms)
 Number     Number       Type             X           Y           Z
 ---------------------------------------------------------------------
      1          6           0       -0.259857    1.356372   -0.010028
      2          6           0       -1.383797    0.462886   -0.132791
      3          6           0       -1.086516   -0.882301    0.074229
      4          6           0        0.221956   -1.327623    0.043025
      5          6           0        1.386925   -0.540578   -0.080965
      6          6           0        1.116388    0.908015    0.042667
      7          1           0       -0.444303    2.337858    0.399228
      8          1           0        1.792786    1.774489   -0.000199
      9          1           0        2.412450   -0.660099   -0.012378
     10          1           0        0.512010   -2.372022   -0.083971
     11          1           0       -1.754712   -1.752732    0.200678
     12          1           0       -2.488822    0.811882   -0.120182
 ---------------------------------------------------------------------

 SCF Done:  E(RB3LYP) =  -232.203581907     A.U. after   13 cycles

 Excitation energies and oscillator strengths:

 Excited State   1:      Singlet-A      4.9673 eV  249.60 nm  f=0.0083  <S**2>=0.000
      20 -> 22         0.12319
      20 -> 23         0.37471
      21 -> 22         0.57237
      21 -> 23        -0.12593
 This state for optimization and/or second-order correction.
 Total Energy, E(TD-HF/TD-DFT) =  -232.021038542
 Copying the excited state density for this state as the 1-particle RhoCI density.

 The electronic state is 1-A.
 Alpha  occ. eigenvalues --  -10.20597 -10.19726 -10.19545 -10.19463 -10.19356
 Alpha  occ. eigenvalues --  -10.19140  -0.83805  -0.73776  -0.73295  -0.60421
 Alpha  occ. eigenvalues --   -0.58835  -0.51052  -0.47457  -0.42505  -0.41810
 Alpha  occ. eigenvalues --   -0.40216  -0.35049  -0.34207  -0.32707  -0.24605
 Alpha  occ. eigenvalues --   -0.23563
 Alpha virt. eigenvalues --   -0.01606  -0.00389   0.08549   0.13202   0.14249
 Alpha virt. eigenvalues --    0.14319   0.16149   0.17338   0.18488   0.27410
 Alpha virt. eigenvalues --    0.28262   0.29730   0.31557   0.45058   0.49522

 Mulliken charges:
               1
     1  C   -0.103472
     2  C   -0.100653
     3  C   -0.060621
     4  C   -0.103057
     5  C   -0.079970
     6  C   -0.108719
     7  H    0.092452
     8  H    0.091564
     9  H    0.100987
    10  H    0.087101
    11  H    0.092552
    12  H    0.091836
 Sum of Mulliken charges =  -0.00000

 Dipole moment (field-independent basis, Debye):
    X=              0.0328    Y=             -0.0274    Z=              0.2301  Tot=              0.2340
 Quadrupole moment (field-independent basis, Debye-Ang):
   XX=            -31.2959   YY=            -32.1608   ZZ=            -38.7078
   XY=              0.2197   XZ=             -0.2700   YZ=              0.5951

 Normal termination of Gaussian 16 at Fri Nov 10 22:11:27 2023.
