 Gaussian 16, Revision B.01,
 Gaussian 16:  EM64L-G16RevB.01 20-Dec-2017

 ---------------------------------
 # TD=(NStates=1) B3LYP/6-31G(d,p)
 ---------------------------------

 -------
 EMISPCT
 -------
 Symbolic Z-matrix:
 Charge =  0 Multiplicity = 1

                         Standard orientation:
 ---------------------------------------------------------------------
 Center     Atomic      Atomic             Coordinates (Angstroms)
 Number     Number       Type             X           Y           Z
 ---------------------------------------------------------------------
      1          6           0        0.905132   -1.080941   -0.101054
      2          6           0        1.445429    0.231477   -0.001348
      3          6           0        0.501012    1.241065   -0.135252
      4          6           0       -0.900624    1.118383   -0.048479
      5          6           0       -1.403288   -0.239353    0.085385
      6          6           0       -0.542809   -1.264319   -0.034211
      7          1           0        1.639600   -1.917642    0.143709
      8          1           0       -0.831136   -2.245567    0.001237
      9          1           0       -2.626972   -0.433713    0.219097
     10          1           0       -1.651452    1.810868    0.188267
     11          1           0        0.926224    2.353962    0.120661
     12          1           0        2.514627    0.394215    0.736777
 ---------------------------------------------------------------------

 SCF Done:  E(RB3LYP) =  -232.167081026     A.U. after   13 cycles

 Excitation energies and oscillator strengths:

 Excited State   1:      Singlet-A      5.0278 eV  246.60 nm  f=0.0004  <S**2>=0.000
      20 -> 22        -0.47800
      21 -> 22         0.13202
      21 -> 23         0.49638
 This state for optimization and/or second-order correction.
 Total Energy, E(TD-HF/TD-DFT) =  -231.982313511
 Copying the excited state density for this state as the 1-particle RhoCI density.

 The electronic state is 1-A.
 Alpha  occ. eigenvalues --  -10.21283 -10.20723 -10.20551 -10.20413 -10.19902
 Alpha  occ. eigenvalues --  -10.18836  -0.84461  -0.74308  -0.73202  -0.60195
 Alpha  occ. eigenvalues --   -0.57931  -0.50625  -0.45448  -0.42965  -0.40910
 Alpha  occ. eigenvalues --   -0.40078  -0.35844  -0.34491  -0.31214  -0.25270
 Alpha  occ. eigenvalues --   -0.23968
 Alpha virt. eigenvalues --   -0.02228  -0.00870   0.05354   0.08652   0.12377
 Alpha virt. eigenvalues --    0.13606   0.16665   0.17166   0.19235   0.26420
 Alpha virt. eigenvalues --    0.28499   0.30596   0.34122   0.45856   0.49824

 Mulliken charges:
               1
     1  C   -0.109913
     2  C   -0.082230
     3  C   -0.092387
     4  C   -0.075860
     5  C   -0.087730
     6  C   -0.061786
     7  H    0.089060
     8  H    0.086284
     9  H    0.077584
    10  H    0.101403
    11  H    0.065611
    12  H    0.089963
 Sum of Mulliken charges =  -0.00000

 Dipole moment (field-independent basis, Debye):
    X=             -0.2592    Y=             -0.1921    Z=              0.7979  Tot=              0.8606
 Quadrupole moment (field-independent basis, Debye-Ang):
   XX=            -32.0020   YY=            -32.9478   ZZ=            -38.5061
   XY=             -0.5678   XZ=              1.0271   YZ=              0.4184

 Normal termination of Gaussian 16 at Fri Nov 10 20:49:31 2023.
