 Gaussian 16, Revision B.01,
 Gaussian 16:  EM64L-G16RevB.01 20-Dec-2017

 ---------------------------------
 # TD=(NStates=1) B3LYP/6-31G(d,p)
 ---------------------------------

 -------
 EMISPCT
 -------
 Symbolic Z-matrix:
 Charge =  0 Multiplicity = 1

                         Standard orientation:
 ---------------------------------------------------------------------
 Center     Atomic      Atomic             Coordinates (Angstroms)
 Number     Number       Type             X           Y           Z
 ---------------------------------------------------------------------
      1          6           0       -1.431086    0.041355    0.043651
      2          6           0       -0.627985    1.276573   -0.033283
      3          6           0        0.720655    1.228810   -0.018500
      4          6           0        1.436034   -0.035951    0.033017
      5          6           0        0.700176   -1.250838   -0.013398
      6          6           0       -0.786336   -1.193471   -0.019293
      7          1           0       -2.632832   -0.193898    0.094005
      8          1           0       -1.395493   -2.078094   -0.139925
      9          1           0        1.429083   -2.176622    0.166922
     10          1           0        2.453948   -0.217706   -0.174146
     11          1           0        1.277985    2.075900    0.149762
     12          1           0       -1.201441    2.191551   -0.049785
 ---------------------------------------------------------------------

 SCF Done:  E(RB3LYP) =  -232.202834648     A.U. after   13 cycles

 Excitation energies and oscillator strengths:

 Excited State   1:      Singlet-A      5.1803 eV  239.34 nm  f=0.0000  <S**2>=0.000
      20 -> 22         0.50250
      21 -> 23        -0.49688
 This state for optimization and/or second-order correction.
 Total Energy, E(TD-HF/TD-DFT) =  -232.012463129
 Copying the excited state density for this state as the 1-particle RhoCI density.

 The electronic state is 1-A.
 Alpha  occ. eigenvalues --  -10.20989 -10.20736 -10.19828 -10.19809 -10.19157
 Alpha  occ. eigenvalues --  -10.18902  -0.83447  -0.73964  -0.73138  -0.59919
 Alpha  occ. eigenvalues --   -0.58466  -0.51073  -0.45888  -0.44040  -0.41041
 Alpha  occ. eigenvalues --   -0.40265  -0.35196  -0.33713  -0.33126  -0.24629
 Alpha  occ. eigenvalues --   -0.24081
 Alpha virt. eigenvalues --   -0.01043  -0.00470   0.07094   0.11188   0.14163
 Alpha virt. eigenvalues --    0.14584   0.16876   0.17477   0.18359   0.27095
 Alpha virt. eigenvalues --    0.28454   0.28623   0.31910   0.46143   0.47599

 Mulliken charges:
               1
     1  C   -0.088645
     2  C   -0.095388
     3  C   -0.075578
     4  C   -0.093942
     5  C   -0.097604
     6  C   -0.089544
     7  H    0.087241
     8  H    0.090929
     9  H    0.084270
    10  H    0.094381
    11  H    0.090662
    12  H    0.093218
 Sum of Mulliken charges =  -0.00000

 Dipole moment (field-independent basis, Debye):
    X=              0.0125    Y=              0.0109    Z=              0.0104  Tot=              0.0196
 Quadrupole moment (field-independent basis, Debye-Ang):
   XX=            -31.1673   YY=            -32.0570   ZZ=            -38.9300
   XY=              0.1675   XZ=              0.0189   YZ=              0.1725

 Normal termination of Gaussian 16 at Fri Nov 10 19:54:24 2023.
