 Gaussian 16, Revision B.01,
 Gaussian 16:  EM64L-G16RevB.01 20-Dec-2017

 ---------------------------------
 # TD=(NStates=1) B3LYP/6-31G(d,p)
 ---------------------------------

 -------
 EMISPCT
 -------
 Symbolic Z-matrix:
 Charge =  0 Multiplicity = 1

                         Standard orientation:
 ---------------------------------------------------------------------
 Center     Atomic      Atomic             Coordinates (Angstroms)
 Number     Number       Type             X           Y           Z
 ---------------------------------------------------------------------
      1          6           0        0.285469    1.357999   -0.059196
      2          6           0        1.347838    0.426294   -0.016355
      3          6           0        1.039892   -0.959724    0.048804
      4          6           0       -0.355815   -1.301334    0.043347
      5          6           0       -1.285958   -0.431773   -0.093237
      6          6           0       -1.012436    0.929462    0.099765
      7          1           0        0.250822    2.462809   -0.165743
      8          1           0       -1.829459    1.554254    0.267524
      9          1           0       -2.329351   -0.870484   -0.155887
     10          1           0       -0.623826   -2.399754   -0.094080
     11          1           0        2.029551   -1.492870    0.013803
     12          1           0        2.388324    0.620497   -0.004392
 ---------------------------------------------------------------------

 SCF Done:  E(RB3LYP) =  -232.206173849     A.U. after   13 cycles

 Excitation energies and oscillator strengths:

 Excited State   1:      Singlet-A      5.4749 eV  226.46 nm  f=0.0002  <S**2>=0.000
      20 -> 22         0.51638
      21 -> 23        -0.48093
 This state for optimization and/or second-order correction.
 Total Energy, E(TD-HF/TD-DFT) =  -232.004976602
 Copying the excited state density for this state as the 1-particle RhoCI density.

 The electronic state is 1-A.
 Alpha  occ. eigenvalues --  -10.19605 -10.19195 -10.18987 -10.18564 -10.18200
 Alpha  occ. eigenvalues --  -10.17946  -0.85562  -0.75015  -0.73928  -0.60141
 Alpha  occ. eigenvalues --   -0.59211  -0.52104  -0.46243  -0.43779  -0.41025
 Alpha  occ. eigenvalues --   -0.40732  -0.36797  -0.35139  -0.31639  -0.25392
 Alpha  occ. eigenvalues --   -0.23854
 Alpha virt. eigenvalues --   -0.00825   0.01140   0.07980   0.12807   0.13508
 Alpha virt. eigenvalues --    0.15507   0.17512   0.18773   0.19527   0.28137
 Alpha virt. eigenvalues --    0.30337   0.31514   0.34498   0.45143   0.48882

 Mulliken charges:
               1
     1  C   -0.079240
     2  C   -0.097056
     3  C   -0.090282
     4  C   -0.086933
     5  C   -0.062685
     6  C   -0.091864
     7  H    0.086087
     8  H    0.087458
     9  H    0.079538
    10  H    0.074571
    11  H    0.093640
    12  H    0.086768
 Sum of Mulliken charges =  -0.00000

 Dipole moment (field-independent basis, Debye):
    X=             -0.0551    Y=              0.1156    Z=             -0.0722  Tot=              0.1470
 Quadrupole moment (field-independent basis, Debye-Ang):
   XX=            -31.0084   YY=            -32.6478   ZZ=            -38.3625
   XY=             -0.5386   XZ=             -0.1472   YZ=              0.2460

 Normal termination of Gaussian 16 at Fri Nov 10 20:13:15 2023.
