 Gaussian 16, Revision B.01,
 Gaussian 16:  EM64L-G16RevB.01 20-Dec-2017

 ---------------------------------
 # TD=(NStates=1) B3LYP/6-31G(d,p)
 ---------------------------------

 -------
 EMISPCT
 -------
 Symbolic Z-matrix:
 Charge =  0 Multiplicity = 1

                         Standard orientation:
 ---------------------------------------------------------------------
 Center     Atomic      Atomic             Coordinates (Angstroms)
 Number     Number       Type             X           Y           Z
 ---------------------------------------------------------------------
      1          6           0        1.299648   -0.571681   -0.036599
      2          6           0        0.185891   -1.391537    0.009092
      3          6           0       -1.148448   -0.844669   -0.022180
      4          6           0       -1.288579    0.569357   -0.030285
      5          6           0       -0.149273    1.369936   -0.035925
      6          6           0        1.139494    0.829226   -0.022078
      7          1           0        2.310526   -1.043395   -0.088666
      8          1           0        2.149624    1.486638    0.401274
      9          1           0       -0.372159    2.486577    0.021431
     10          1           0       -2.274514    1.025753    0.200095
     11          1           0       -2.126093   -1.323970    0.095705
     12          1           0        0.080224   -2.395392    0.198017
 ---------------------------------------------------------------------

 SCF Done:  E(RB3LYP) =  -232.211350783     A.U. after   13 cycles

 Excitation energies and oscillator strengths:

 Excited State   1:      Singlet-A      5.2666 eV  235.42 nm  f=0.0004  <S**2>=0.000
      20 -> 22         0.51010
      21 -> 23         0.47386
 This state for optimization and/or second-order correction.
 Total Energy, E(TD-HF/TD-DFT) =  -232.017807516
 Copying the excited state density for this state as the 1-particle RhoCI density.

 The electronic state is 1-A.
 Alpha  occ. eigenvalues --  -10.21004 -10.19858 -10.19535 -10.19383 -10.19055
 Alpha  occ. eigenvalues --  -10.19005  -0.84379  -0.74229  -0.73382  -0.59893
 Alpha  occ. eigenvalues --   -0.59138  -0.50867  -0.45852  -0.43649  -0.41460
 Alpha  occ. eigenvalues --   -0.40082  -0.36024  -0.33781  -0.32685  -0.24871
 Alpha  occ. eigenvalues --   -0.24185
 Alpha virt. eigenvalues --   -0.01083   0.00007   0.06437   0.11955   0.13938
 Alpha virt. eigenvalues --    0.14602   0.16124   0.17285   0.19379   0.28005
 Alpha virt. eigenvalues --    0.29831   0.30570   0.32317   0.46392   0.50966

 Mulliken charges:
               1
     1  C   -0.093235
     2  C   -0.071908
     3  C   -0.104216
     4  C   -0.080975
     5  C   -0.085765
     6  C   -0.088717
     7  H    0.094157
     8  H    0.077307
     9  H    0.083813
    10  H    0.087126
    11  H    0.091692
    12  H    0.090721
 Sum of Mulliken charges =  -0.00000

 Dipole moment (field-independent basis, Debye):
    X=             -0.2247    Y=             -0.1436    Z=              0.4830  Tot=              0.5517
 Quadrupole moment (field-independent basis, Debye-Ang):
   XX=            -31.4030   YY=            -32.4106   ZZ=            -38.6613
   XY=             -0.2310   XZ=             -0.0808   YZ=              0.2088

 Normal termination of Gaussian 16 at Fri Nov 10 22:48:45 2023.
