 Gaussian 16, Revision B.01,
 Gaussian 16:  EM64L-G16RevB.01 20-Dec-2017

 ---------------------------------
 # TD=(NStates=1) B3LYP/6-31G(d,p)
 ---------------------------------

 -------
 EMISPCT
 -------
 Symbolic Z-matrix:
 Charge =  0 Multiplicity = 1

                         Standard orientation:
 ---------------------------------------------------------------------
 Center     Atomic      Atomic             Coordinates (Angstroms)
 Number     Number       Type             X           Y           Z
 ---------------------------------------------------------------------
      1          6           0        1.446672   -0.003830    0.016646
      2          6           0        0.718922   -1.245132   -0.116676
      3          6           0       -0.816463   -1.154896    0.041110
      4          6           0       -1.442294    0.000726    0.003449
      5          6           0       -0.691137    1.204379    0.009376
      6          6           0        0.771558    1.169550   -0.011313
      7          1           0        2.464391   -0.138542    0.311820
      8          1           0        1.329103    2.104380   -0.007996
      9          1           0       -1.141558    2.157934   -0.158772
     10          1           0       -2.500286    0.255390    0.104947
     11          1           0       -1.353005   -2.034056    0.044119
     12          1           0        1.277803   -2.169889    0.050329
 ---------------------------------------------------------------------

 SCF Done:  E(RB3LYP) =  -232.212240599     A.U. after   13 cycles

 Excitation energies and oscillator strengths:

 Excited State   1:      Singlet-A      5.1693 eV  239.85 nm  f=0.0031  <S**2>=0.000
      20 -> 22         0.52600
      21 -> 22        -0.12794
      21 -> 23         0.45212
 This state for optimization and/or second-order correction.
 Total Energy, E(TD-HF/TD-DFT) =  -232.022272535
 Copying the excited state density for this state as the 1-particle RhoCI density.

 The electronic state is 1-A.
 Alpha  occ. eigenvalues --  -10.20408 -10.19233 -10.19136 -10.18945 -10.18797
 Alpha  occ. eigenvalues --  -10.18604  -0.83813  -0.75562  -0.71878  -0.60992
 Alpha  occ. eigenvalues --   -0.58504  -0.51488  -0.46772  -0.44563  -0.41546
 Alpha  occ. eigenvalues --   -0.39991  -0.36063  -0.34974  -0.31959  -0.25796
 Alpha  occ. eigenvalues --   -0.22827
 Alpha virt. eigenvalues --   -0.02492   0.01146   0.09605   0.13123   0.14817
 Alpha virt. eigenvalues --    0.15244   0.17089   0.18547   0.19284   0.26117
 Alpha virt. eigenvalues --    0.27686   0.31350   0.32907   0.46112   0.49903

 Mulliken charges:
               1
     1  C   -0.077011
     2  C   -0.115681
     3  C   -0.103827
     4  C   -0.048938
     5  C   -0.102057
     6  C   -0.082962
     7  H    0.092708
     8  H    0.082777
     9  H    0.086915
    10  H    0.090846
    11  H    0.085447
    12  H    0.091782
 Sum of Mulliken charges =  -0.00000

 Dipole moment (field-independent basis, Debye):
    X=             -0.0213    Y=              0.0616    Z=              0.2372  Tot=              0.2460
 Quadrupole moment (field-independent basis, Debye-Ang):
   XX=            -31.2202   YY=            -31.7740   ZZ=            -38.5709
   XY=             -0.5334   XZ=              0.5875   YZ=             -0.5321

 Normal termination of Gaussian 16 at Fri Nov 10 20:08:59 2023.
