 Gaussian 16, Revision B.01,
 Gaussian 16:  EM64L-G16RevB.01 20-Dec-2017

 ---------------------------------
 # TD=(NStates=1) B3LYP/6-31G(d,p)
 ---------------------------------

 -------
 EMISPCT
 -------
 Symbolic Z-matrix:
 Charge =  0 Multiplicity = 1

                         Standard orientation:
 ---------------------------------------------------------------------
 Center     Atomic      Atomic             Coordinates (Angstroms)
 Number     Number       Type             X           Y           Z
 ---------------------------------------------------------------------
      1          6           0       -1.040286    0.901567   -0.073638
      2          6           0        0.313181    1.419561   -0.020772
      3          6           0        1.384258    0.467011   -0.011008
      4          6           0        1.048457   -0.920186   -0.010852
      5          6           0       -0.271675   -1.379878   -0.103229
      6          6           0       -1.418942   -0.473593    0.131528
      7          1           0       -1.885103    1.678035   -0.082584
      8          1           0       -2.546065   -0.676121    0.240415
      9          1           0       -0.419357   -2.410674   -0.190129
     10          1           0        1.977548   -1.763610    0.254530
     11          1           0        2.431749    0.684041    0.219481
     12          1           0        0.351265    2.401447    0.086124
 ---------------------------------------------------------------------

 SCF Done:  E(RB3LYP) =  -232.193774241     A.U. after   13 cycles

 Excitation energies and oscillator strengths:

 Excited State   1:      Singlet-A      4.9169 eV  252.16 nm  f=0.0052  <S**2>=0.000
      20 -> 22         0.23270
      20 -> 23         0.36443
      21 -> 22         0.51448
      21 -> 23        -0.21810
 This state for optimization and/or second-order correction.
 Total Energy, E(TD-HF/TD-DFT) =  -232.013082094
 Copying the excited state density for this state as the 1-particle RhoCI density.

 The electronic state is 1-A.
 Alpha  occ. eigenvalues --  -10.21280 -10.20974 -10.20213 -10.20063 -10.19902
 Alpha  occ. eigenvalues --  -10.19255  -0.83085  -0.73470  -0.72826  -0.60976
 Alpha  occ. eigenvalues --   -0.57342  -0.50637  -0.46651  -0.43290  -0.41823
 Alpha  occ. eigenvalues --   -0.39168  -0.35279  -0.34034  -0.33139  -0.24266
 Alpha  occ. eigenvalues --   -0.23683
 Alpha virt. eigenvalues --   -0.01836  -0.00511   0.06690   0.11432   0.12548
 Alpha virt. eigenvalues --    0.14618   0.16464   0.17339   0.19053   0.26678
 Alpha virt. eigenvalues --    0.28220   0.30018   0.30816   0.46670   0.47147

 Mulliken charges:
               1
     1  C   -0.104923
     2  C   -0.061381
     3  C   -0.089752
     4  C   -0.079043
     5  C   -0.095152
     6  C   -0.088476
     7  H    0.075454
     8  H    0.103014
     9  H    0.089361
    10  H    0.071855
    11  H    0.092532
    12  H    0.086511
 Sum of Mulliken charges =  -0.00000

 Dipole moment (field-independent basis, Debye):
    X=             -0.1780    Y=              0.0700    Z=              0.3218  Tot=              0.3744
 Quadrupole moment (field-independent basis, Debye-Ang):
   XX=            -31.3247   YY=            -31.9228   ZZ=            -39.0114
   XY=             -0.0622   XZ=              0.4911   YZ=              0.1407

 Normal termination of Gaussian 16 at Fri Nov 10 19:47:09 2023.
