 Gaussian 16, Revision B.01,
 Gaussian 16:  EM64L-G16RevB.01 20-Dec-2017

 ---------------------------------
 # TD=(NStates=1) B3LYP/6-31G(d,p)
 ---------------------------------

 -------
 EMISPCT
 -------
 Symbolic Z-matrix:
 Charge =  0 Multiplicity = 1

                         Standard orientation:
 ---------------------------------------------------------------------
 Center     Atomic      Atomic             Coordinates (Angstroms)
 Number     Number       Type             X           Y           Z
 ---------------------------------------------------------------------
      1          6           0        1.356115   -0.458647    0.035766
      2          6           0        0.296931   -1.377406   -0.013790
      3          6           0       -1.081755   -0.955506   -0.042610
      4          6           0       -1.323283    0.476237    0.029445
      5          6           0       -0.330676    1.334719   -0.001701
      6          6           0        1.064807    0.951115   -0.039588
      7          1           0        2.486527   -0.735096    0.156877
      8          1           0        1.982365    1.480878   -0.146882
      9          1           0       -0.409268    2.535470    0.015461
     10          1           0       -2.317651    0.852902    0.224073
     11          1           0       -2.022262   -1.567301   -0.161112
     12          1           0        0.387454   -2.389925    0.106455
 ---------------------------------------------------------------------

 SCF Done:  E(RB3LYP) =  -232.211140478     A.U. after   13 cycles

 Excitation energies and oscillator strengths:

 Excited State   1:      Singlet-A      5.3142 eV  233.31 nm  f=0.0013  <S**2>=0.000
      20 -> 22         0.53202
      21 -> 23         0.46232
 This state for optimization and/or second-order correction.
 Total Energy, E(TD-HF/TD-DFT) =  -232.015848246
 Copying the excited state density for this state as the 1-particle RhoCI density.

 The electronic state is 1-A.
 Alpha  occ. eigenvalues --  -10.20436 -10.20147 -10.19841 -10.19459 -10.19131
 Alpha  occ. eigenvalues --  -10.18644  -0.84007  -0.74503  -0.72858  -0.60229
 Alpha  occ. eigenvalues --   -0.58689  -0.51263  -0.46283  -0.43718  -0.40806
 Alpha  occ. eigenvalues --   -0.40246  -0.36827  -0.34467  -0.31368  -0.25415
 Alpha  occ. eigenvalues --   -0.23620
 Alpha virt. eigenvalues --   -0.01679   0.00957   0.07823   0.12205   0.13521
 Alpha virt. eigenvalues --    0.15159   0.16717   0.17636   0.18095   0.27364
 Alpha virt. eigenvalues --    0.27890   0.30401   0.33660   0.45767   0.50866

 Mulliken charges:
               1
     1  C   -0.093374
     2  C   -0.085059
     3  C   -0.106724
     4  C   -0.081758
     5  C   -0.074176
     6  C   -0.088823
     7  H    0.085935
     8  H    0.094347
     9  H    0.075286
    10  H    0.089880
    11  H    0.097954
    12  H    0.086510
 Sum of Mulliken charges =  -0.00000

 Dipole moment (field-independent basis, Debye):
    X=              0.0109    Y=             -0.0656    Z=              0.1084  Tot=              0.1272
 Quadrupole moment (field-independent basis, Debye-Ang):
   XX=            -30.7578   YY=            -32.4814   ZZ=            -38.8017
   XY=              0.6348   XZ=             -0.0712   YZ=             -0.1034

 Normal termination of Gaussian 16 at Fri Nov 10 22:24:01 2023.
