 Gaussian 16, Revision B.01,
 Gaussian 16:  EM64L-G16RevB.01 20-Dec-2017

 ---------------------------------
 # TD=(NStates=1) B3LYP/6-31G(d,p)
 ---------------------------------

 -------
 EMISPCT
 -------
 Symbolic Z-matrix:
 Charge =  0 Multiplicity = 1

                         Standard orientation:
 ---------------------------------------------------------------------
 Center     Atomic      Atomic             Coordinates (Angstroms)
 Number     Number       Type             X           Y           Z
 ---------------------------------------------------------------------
      1          6           0        1.445490   -0.149832   -0.066831
      2          6           0        0.833907    1.116274    0.065654
      3          6           0       -0.603859    1.239722    0.029780
      4          6           0       -1.390613    0.153071   -0.086235
      5          6           0       -0.835824   -1.112841    0.032369
      6          6           0        0.548316   -1.269981   -0.086661
      7          1           0        2.555974   -0.254102    0.026255
      8          1           0        1.130239   -2.129343    0.285762
      9          1           0       -1.646870   -1.995544    0.256163
     10          1           0       -2.410359    0.287349    0.083106
     11          1           0       -1.079726    2.224718   -0.113639
     12          1           0        1.466239    2.008443    0.133905
 ---------------------------------------------------------------------

 SCF Done:  E(RB3LYP) =  -232.218960508     A.U. after   13 cycles

 Excitation energies and oscillator strengths:

 Excited State   1:      Singlet-A      5.2997 eV  233.95 nm  f=0.0010  <S**2>=0.000
      20 -> 22         0.44651
      20 -> 23         0.16515
      21 -> 22        -0.19003
      21 -> 23         0.48661
 This state for optimization and/or second-order correction.
 Total Energy, E(TD-HF/TD-DFT) =  -232.024200481
 Copying the excited state density for this state as the 1-particle RhoCI density.

 The electronic state is 1-A.
 Alpha  occ. eigenvalues --  -10.20359 -10.19973 -10.19483 -10.19449 -10.19003
 Alpha  occ. eigenvalues --  -10.17834  -0.84731  -0.74787  -0.73029  -0.59891
 Alpha  occ. eigenvalues --   -0.59212  -0.51066  -0.45383  -0.44116  -0.41942
 Alpha  occ. eigenvalues --   -0.40267  -0.35567  -0.34539  -0.32656  -0.25088
 Alpha  occ. eigenvalues --   -0.24218
 Alpha virt. eigenvalues --   -0.00767  -0.00342   0.07615   0.12548   0.13644
 Alpha virt. eigenvalues --    0.14343   0.16782   0.18510   0.19458   0.28344
 Alpha virt. eigenvalues --    0.29101   0.31115   0.32707   0.46562   0.49450

 Mulliken charges:
               1
     1  C   -0.095283
     2  C   -0.085696
     3  C   -0.086264
     4  C   -0.068164
     5  C   -0.083801
     6  C   -0.103153
     7  H    0.096901
     8  H    0.089767
     9  H    0.079845
    10  H    0.086022
    11  H    0.086932
    12  H    0.082893
 Sum of Mulliken charges =  -0.00000

 Dipole moment (field-independent basis, Debye):
    X=              0.0412    Y=              0.2181    Z=              0.3975  Tot=              0.4552
 Quadrupole moment (field-independent basis, Debye-Ang):
   XX=            -30.8333   YY=            -32.9912   ZZ=            -38.5540
   XY=             -0.1592   XZ=              0.1235   YZ=             -0.8594

 Normal termination of Gaussian 16 at Fri Nov 10 20:55:55 2023.
