 Gaussian 16, Revision B.01,
 Gaussian 16:  EM64L-G16RevB.01 20-Dec-2017

 ---------------------------------
 # TD=(NStates=1) B3LYP/6-31G(d,p)
 ---------------------------------

 -------
 EMISPCT
 -------
 Symbolic Z-matrix:
 Charge =  0 Multiplicity = 1

                         Standard orientation:
 ---------------------------------------------------------------------
 Center     Atomic      Atomic             Coordinates (Angstroms)
 Number     Number       Type             X           Y           Z
 ---------------------------------------------------------------------
      1          6           0       -1.110939   -0.943672   -0.164776
      2          6           0       -1.432489    0.440222    0.029071
      3          6           0       -0.230056    1.372925    0.116284
      4          6           0        1.073216    0.945217   -0.093028
      5          6           0        1.413719   -0.506264   -0.100795
      6          6           0        0.310423   -1.347140    0.151893
      7          1           0       -1.915004   -1.641103   -0.032833
      8          1           0        0.401265   -2.398067    0.497950
      9          1           0        2.468526   -0.819645   -0.195148
     10          1           0        1.896952    1.772455    0.131602
     11          1           0       -0.447755    2.400308    0.174941
     12          1           0       -2.547227    0.918324   -0.208412
 ---------------------------------------------------------------------

 SCF Done:  E(RB3LYP) =  -232.185142599     A.U. after   13 cycles

 Excitation energies and oscillator strengths:

 Excited State   1:      Singlet-A      4.6937 eV  264.15 nm  f=0.0059  <S**2>=0.000
      20 -> 22        -0.22101
      20 -> 23         0.35784
      21 -> 22         0.52651
      21 -> 23         0.21271
 This state for optimization and/or second-order correction.
 Total Energy, E(TD-HF/TD-DFT) =  -232.012650776
 Copying the excited state density for this state as the 1-particle RhoCI density.

 The electronic state is 1-A.
 Alpha  occ. eigenvalues --  -10.21967 -10.20992 -10.20882 -10.20854 -10.20366
 Alpha  occ. eigenvalues --  -10.19419  -0.82309  -0.72786  -0.72510  -0.58842
 Alpha  occ. eigenvalues --   -0.58258  -0.50247  -0.45752  -0.42358  -0.41171
 Alpha  occ. eigenvalues --   -0.40333  -0.35790  -0.33124  -0.32385  -0.24374
 Alpha  occ. eigenvalues --   -0.23326
 Alpha virt. eigenvalues --   -0.02340  -0.01488   0.08083   0.09500   0.12950
 Alpha virt. eigenvalues --    0.13784   0.15579   0.16990   0.17788   0.25513
 Alpha virt. eigenvalues --    0.26017   0.29561   0.30481   0.43175   0.47985

 Mulliken charges:
               1
     1  C   -0.099968
     2  C   -0.096664
     3  C   -0.080346
     4  C   -0.093331
     5  C   -0.089243
     6  C   -0.098263
     7  H    0.097844
     8  H    0.092530
     9  H    0.104614
    10  H    0.087183
    11  H    0.087987
    12  H    0.087659
 Sum of Mulliken charges =  -0.00000

 Dipole moment (field-independent basis, Debye):
    X=              0.0757    Y=             -0.0628    Z=              0.2452  Tot=              0.2642
 Quadrupole moment (field-independent basis, Debye-Ang):
   XX=            -31.2668   YY=            -32.0499   ZZ=            -39.1334
   XY=             -0.1145   XZ=              0.2935   YZ=             -0.4115

 Normal termination of Gaussian 16 at Fri Nov 10 22:25:51 2023.
