 Gaussian 16, Revision B.01,
 Gaussian 16:  EM64L-G16RevB.01 20-Dec-2017

 ---------------------------------
 # TD=(NStates=1) B3LYP/6-31G(d,p)
 ---------------------------------

 -------
 EMISPCT
 -------
 Symbolic Z-matrix:
 Charge =  0 Multiplicity = 1

                         Standard orientation:
 ---------------------------------------------------------------------
 Center     Atomic      Atomic             Coordinates (Angstroms)
 Number     Number       Type             X           Y           Z
 ---------------------------------------------------------------------
      1          6           0        0.008949   -1.409539    0.006591
      2          6           0        1.281748   -0.677432   -0.042573
      3          6           0        1.152696    0.739530   -0.058763
      4          6           0       -0.035957    1.462606    0.032411
      5          6           0       -1.329496    0.676415    0.015698
      6          6           0       -1.148933   -0.735202   -0.028119
      7          1           0        0.092007   -2.535304    0.229096
      8          1           0       -1.979951   -1.461435   -0.137004
      9          1           0       -2.335421    0.946561    0.095436
     10          1           0        0.127640    2.621346   -0.004501
     11          1           0        2.182811    1.167664    0.115518
     12          1           0        2.338872   -1.077107    0.149988
 ---------------------------------------------------------------------

 SCF Done:  E(RB3LYP) =  -232.204082084     A.U. after   14 cycles

 Excitation energies and oscillator strengths:

 Excited State   1:      Singlet-A      5.1400 eV  241.22 nm  f=0.0054  <S**2>=0.000
      20 -> 22         0.56664
      21 -> 23        -0.41862
 This state for optimization and/or second-order correction.
 Total Energy, E(TD-HF/TD-DFT) =  -232.015191587
 Copying the excited state density for this state as the 1-particle RhoCI density.

 The electronic state is 1-A.
 Alpha  occ. eigenvalues --  -10.21545 -10.20793 -10.20209 -10.19671 -10.19363
 Alpha  occ. eigenvalues --  -10.18920  -0.83652  -0.74376  -0.72505  -0.61200
 Alpha  occ. eigenvalues --   -0.57331  -0.50614  -0.45544  -0.43120  -0.41166
 Alpha  occ. eigenvalues --   -0.40484  -0.35629  -0.34778  -0.31738  -0.25107
 Alpha  occ. eigenvalues --   -0.23662
 Alpha virt. eigenvalues --   -0.02390   0.00864   0.07528   0.12369   0.12619
 Alpha virt. eigenvalues --    0.14174   0.14970   0.17820   0.18661   0.27025
 Alpha virt. eigenvalues --    0.28188   0.28605   0.31991   0.47555   0.49352

 Mulliken charges:
               1
     1  C   -0.088698
     2  C   -0.098295
     3  C   -0.072755
     4  C   -0.107495
     5  C   -0.095107
     6  C   -0.078490
     7  H    0.086571
     8  H    0.084765
     9  H    0.099788
    10  H    0.095248
    11  H    0.080788
    12  H    0.093681
 Sum of Mulliken charges =  -0.00000

 Dipole moment (field-independent basis, Debye):
    X=              0.0278    Y=             -0.1146    Z=              0.2745  Tot=              0.2987
 Quadrupole moment (field-independent basis, Debye-Ang):
   XX=            -31.1236   YY=            -32.2307   ZZ=            -39.0041
   XY=              0.1030   XZ=              0.5489   YZ=             -0.2650

 Normal termination of Gaussian 16 at Fri Nov 10 20:18:43 2023.
