 Gaussian 16, Revision B.01,
 Gaussian 16:  EM64L-G16RevB.01 20-Dec-2017

 ---------------------------------
 # TD=(NStates=1) B3LYP/6-31G(d,p)
 ---------------------------------

 -------
 EMISPCT
 -------
 Symbolic Z-matrix:
 Charge =  0 Multiplicity = 1

                         Standard orientation:
 ---------------------------------------------------------------------
 Center     Atomic      Atomic             Coordinates (Angstroms)
 Number     Number       Type             X           Y           Z
 ---------------------------------------------------------------------
      1          6           0        1.388991   -0.552973   -0.059815
      2          6           0        1.090393    0.900112    0.028384
      3          6           0       -0.223743    1.408218   -0.018615
      4          6           0       -1.327886    0.498743    0.078382
      5          6           0       -1.110727   -0.897263    0.003442
      6          6           0        0.189034   -1.404332   -0.073698
      7          1           0        2.408209   -0.763287    0.118147
      8          1           0        0.360985   -2.420863    0.170393
      9          1           0       -2.009270   -1.457951    0.138838
     10          1           0       -2.331939    0.960790   -0.201322
     11          1           0       -0.252455    2.387657   -0.214031
     12          1           0        1.788092    1.578626    0.239505
 ---------------------------------------------------------------------

 SCF Done:  E(RB3LYP) =  -232.204090480     A.U. after   14 cycles

 Excitation energies and oscillator strengths:

 Excited State   1:      Singlet-A      4.9288 eV  251.55 nm  f=0.0035  <S**2>=0.000
      20 -> 22         0.55502
      21 -> 23         0.42238
 This state for optimization and/or second-order correction.
 Total Energy, E(TD-HF/TD-DFT) =  -232.022961071
 Copying the excited state density for this state as the 1-particle RhoCI density.

 The electronic state is 1-A.
 Alpha  occ. eigenvalues --  -10.20432 -10.19875 -10.19695 -10.19251 -10.18435
 Alpha  occ. eigenvalues --  -10.18196  -0.83153  -0.74330  -0.72806  -0.60550
 Alpha  occ. eigenvalues --   -0.59601  -0.51441  -0.47570  -0.43494  -0.42035
 Alpha  occ. eigenvalues --   -0.41096  -0.35358  -0.33631  -0.33143  -0.24079
 Alpha  occ. eigenvalues --   -0.23922
 Alpha virt. eigenvalues --   -0.02015  -0.00411   0.10252   0.12703   0.14539
 Alpha virt. eigenvalues --    0.15801   0.17277   0.17773   0.20956   0.27088
 Alpha virt. eigenvalues --    0.27721   0.30528   0.31050   0.47097   0.48148

 Mulliken charges:
               1
     1  C   -0.093963
     2  C   -0.088581
     3  C   -0.068002
     4  C   -0.102826
     5  C   -0.076126
     6  C   -0.102408
     7  H    0.100627
     8  H    0.091095
     9  H    0.094512
    10  H    0.083589
    11  H    0.083463
    12  H    0.078618
 Sum of Mulliken charges =  -0.00000

 Dipole moment (field-independent basis, Debye):
    X=              0.1791    Y=              0.1451    Z=              0.1750  Tot=              0.2894
 Quadrupole moment (field-independent basis, Debye-Ang):
   XX=            -31.2898   YY=            -31.7556   ZZ=            -38.5258
   XY=              0.3112   XZ=              0.8748   YZ=             -0.8984

 Normal termination of Gaussian 16 at Fri Nov 10 20:03:16 2023.
