 Gaussian 16, Revision B.01,
 Gaussian 16:  EM64L-G16RevB.01 20-Dec-2017

 ---------------------------------
 # TD=(NStates=1) B3LYP/6-31G(d,p)
 ---------------------------------

 -------
 EMISPCT
 -------
 Symbolic Z-matrix:
 Charge =  0 Multiplicity = 1

                         Standard orientation:
 ---------------------------------------------------------------------
 Center     Atomic      Atomic             Coordinates (Angstroms)
 Number     Number       Type             X           Y           Z
 ---------------------------------------------------------------------
      1          6           0       -0.670454   -1.290170   -0.013348
      2          6           0        0.777678   -1.186595   -0.022086
      3          6           0        1.496205    0.093589   -0.018217
      4          6           0        0.678771    1.292459    0.056001
      5          6           0       -0.844144    1.164109    0.008838
      6          6           0       -1.472562   -0.083304    0.002496
      7          1           0       -1.106894   -2.277306   -0.100713
      8          1           0       -2.537855   -0.063396    0.042077
      9          1           0       -1.582218    2.132245   -0.110312
     10          1           0        1.288263    2.291983   -0.030725
     11          1           0        2.709657    0.038440   -0.201663
     12          1           0        1.436081   -2.062491    0.319224
 ---------------------------------------------------------------------

 SCF Done:  E(RB3LYP) =  -232.193142927     A.U. after   13 cycles

 Excitation energies and oscillator strengths:

 Excited State   1:      Singlet-A      4.8920 eV  253.44 nm  f=0.0008  <S**2>=0.000
      20 -> 22        -0.47839
      21 -> 22        -0.15351
      21 -> 23         0.48821
 This state for optimization and/or second-order correction.
 Total Energy, E(TD-HF/TD-DFT) =  -232.013365244
 Copying the excited state density for this state as the 1-particle RhoCI density.

 The electronic state is 1-A.
 Alpha  occ. eigenvalues --  -10.22081 -10.21945 -10.21813 -10.20687 -10.20533
 Alpha  occ. eigenvalues --  -10.19933  -0.82167  -0.73355  -0.71607  -0.59417
 Alpha  occ. eigenvalues --   -0.57555  -0.49543  -0.45488  -0.42653  -0.41259
 Alpha  occ. eigenvalues --   -0.39483  -0.34697  -0.34016  -0.32788  -0.24655
 Alpha  occ. eigenvalues --   -0.23425
 Alpha virt. eigenvalues --   -0.02079  -0.00930   0.06325   0.11201   0.12068
 Alpha virt. eigenvalues --    0.13428   0.14062   0.16197   0.17182   0.25545
 Alpha virt. eigenvalues --    0.27453   0.28538   0.29176   0.45746   0.48191

 Mulliken charges:
               1
     1  C   -0.092463
     2  C   -0.099806
     3  C   -0.090506
     4  C   -0.104951
     5  C   -0.097176
     6  C   -0.070559
     7  H    0.096662
     8  H    0.095830
     9  H    0.085484
    10  H    0.092260
    11  H    0.095022
    12  H    0.090202
 Sum of Mulliken charges =  -0.00000

 Dipole moment (field-independent basis, Debye):
    X=             -0.0931    Y=             -0.0739    Z=             -0.0528  Tot=              0.1300
 Quadrupole moment (field-independent basis, Debye-Ang):
   XX=            -30.6428   YY=            -32.4249   ZZ=            -39.5009
   XY=             -0.0489   XZ=              0.0375   YZ=             -0.5971

 Normal termination of Gaussian 16 at Fri Nov 10 19:38:04 2023.
