 Gaussian 16, Revision B.01,
 Gaussian 16:  EM64L-G16RevB.01 20-Dec-2017

 ---------------------------------
 # TD=(NStates=1) B3LYP/6-31G(d,p)
 ---------------------------------

 -------
 EMISPCT
 -------
 Symbolic Z-matrix:
 Charge =  0 Multiplicity = 1

                         Standard orientation:
 ---------------------------------------------------------------------
 Center     Atomic      Atomic             Coordinates (Angstroms)
 Number     Number       Type             X           Y           Z
 ---------------------------------------------------------------------
      1          6           0       -0.118193   -1.354985   -0.002336
      2          6           0       -1.349183   -0.529784    0.009255
      3          6           0       -1.161194    0.858764   -0.039283
      4          6           0        0.227860    1.385228   -0.004732
      5          6           0        1.309726    0.543530   -0.028407
      6          6           0        1.114980   -0.926958    0.013736
      7          1           0       -0.452403   -2.373922    0.091624
      8          1           0        1.981750   -1.492402   -0.002210
      9          1           0        2.417365    1.059172   -0.016408
     10          1           0        0.241741    2.411703    0.211100
     11          1           0       -1.896090    1.531173    0.067390
     12          1           0       -2.436338   -0.990495   -0.040890
 ---------------------------------------------------------------------

 SCF Done:  E(RB3LYP) =  -232.204923814     A.U. after   13 cycles

 Excitation energies and oscillator strengths:

 Excited State   1:      Singlet-A      5.3845 eV  230.26 nm  f=0.0020  <S**2>=0.000
      20 -> 22         0.46994
      20 -> 23        -0.16859
      21 -> 22        -0.24194
      21 -> 23        -0.43784
 This state for optimization and/or second-order correction.
 Total Energy, E(TD-HF/TD-DFT) =  -232.007046820
 Copying the excited state density for this state as the 1-particle RhoCI density.

 The electronic state is 1-A.
 Alpha  occ. eigenvalues --  -10.20616 -10.20495 -10.18890 -10.18812 -10.18768
 Alpha  occ. eigenvalues --  -10.18745  -0.83813  -0.74615  -0.72821  -0.60421
 Alpha  occ. eigenvalues --   -0.58867  -0.51203  -0.46775  -0.43852  -0.42136
 Alpha  occ. eigenvalues --   -0.40278  -0.35580  -0.33846  -0.32207  -0.25059
 Alpha  occ. eigenvalues --   -0.24162
 Alpha virt. eigenvalues --   -0.00873   0.00394   0.08270   0.11836   0.14286
 Alpha virt. eigenvalues --    0.15223   0.16923   0.17418   0.20013   0.26138
 Alpha virt. eigenvalues --    0.27784   0.30987   0.33870   0.46009   0.49520

 Mulliken charges:
               1
     1  C   -0.083123
     2  C   -0.100271
     3  C   -0.079031
     4  C   -0.075690
     5  C   -0.109864
     6  C   -0.061504
     7  H    0.082474
     8  H    0.092295
     9  H    0.076725
    10  H    0.087763
    11  H    0.080735
    12  H    0.089492
 Sum of Mulliken charges =  -0.00000

 Dipole moment (field-independent basis, Debye):
    X=             -0.1194    Y=              0.0370    Z=              0.1960  Tot=              0.2324
 Quadrupole moment (field-independent basis, Debye-Ang):
   XX=            -31.2102   YY=            -31.7851   ZZ=            -38.7245
   XY=             -0.2134   XZ=             -0.0632   YZ=              0.3873

 Normal termination of Gaussian 16 at Fri Nov 10 20:54:06 2023.
