 Gaussian 16, Revision B.01,
 Gaussian 16:  EM64L-G16RevB.01 20-Dec-2017

 ---------------------------------
 # TD=(NStates=1) B3LYP/6-31G(d,p)
 ---------------------------------

 -------
 EMISPCT
 -------
 Symbolic Z-matrix:
 Charge =  0 Multiplicity = 1

                         Standard orientation:
 ---------------------------------------------------------------------
 Center     Atomic      Atomic             Coordinates (Angstroms)
 Number     Number       Type             X           Y           Z
 ---------------------------------------------------------------------
      1          6           0       -0.476386    1.351738   -0.028419
      2          6           0        0.955206    1.008261   -0.086511
      3          6           0        1.392701   -0.257681    0.049591
      4          6           0        0.412375   -1.347601   -0.039506
      5          6           0       -0.933407   -1.037108   -0.003306
      6          6           0       -1.387509    0.266604    0.093665
      7          1           0       -0.647752    2.481200   -0.163247
      8          1           0       -2.388492    0.689943    0.170220
      9          1           0       -1.689061   -1.917217   -0.206152
     10          1           0        0.718050   -2.324192   -0.098677
     11          1           0        2.467137   -0.543886    0.290236
     12          1           0        1.762241    1.708869    0.094545
 ---------------------------------------------------------------------

 SCF Done:  E(RB3LYP) =  -232.216599507     A.U. after   13 cycles

 Excitation energies and oscillator strengths:

 Excited State   1:      Singlet-A      5.3087 eV  233.55 nm  f=0.0004  <S**2>=0.000
      20 -> 22         0.50478
      21 -> 23         0.48477
 This state for optimization and/or second-order correction.
 Total Energy, E(TD-HF/TD-DFT) =  -232.021510092
 Copying the excited state density for this state as the 1-particle RhoCI density.

 The electronic state is 1-A.
 Alpha  occ. eigenvalues --  -10.20591 -10.19925 -10.19640 -10.19305 -10.18674
 Alpha  occ. eigenvalues --  -10.18581  -0.84165  -0.74431  -0.73126  -0.60141
 Alpha  occ. eigenvalues --   -0.58614  -0.51166  -0.46200  -0.43443  -0.41286
 Alpha  occ. eigenvalues --   -0.40623  -0.36011  -0.34441  -0.31901  -0.25266
 Alpha  occ. eigenvalues --   -0.23770
 Alpha virt. eigenvalues --   -0.01298   0.00498   0.08253   0.12601   0.13547
 Alpha virt. eigenvalues --    0.14748   0.16092   0.17704   0.19049   0.27543
 Alpha virt. eigenvalues --    0.29521   0.30152   0.33067   0.45827   0.50880

 Mulliken charges:
               1
     1  C   -0.105440
     2  C   -0.089647
     3  C   -0.083840
     4  C   -0.082144
     5  C   -0.084342
     6  C   -0.086841
     7  H    0.099003
     8  H    0.094971
     9  H    0.083286
    10  H    0.084328
    11  H    0.087491
    12  H    0.083173
 Sum of Mulliken charges =  -0.00000

 Dipole moment (field-independent basis, Debye):
    X=              0.0700    Y=              0.0208    Z=              0.0592  Tot=              0.0940
 Quadrupole moment (field-independent basis, Debye-Ang):
   XX=            -31.9583   YY=            -31.4144   ZZ=            -38.6765
   XY=             -0.4495   XZ=              0.6716   YZ=              0.2580

 Normal termination of Gaussian 16 at Fri Nov 10 20:31:50 2023.
