 Gaussian 16, Revision B.01,
 Gaussian 16:  EM64L-G16RevB.01 20-Dec-2017

 ---------------------------------
 # TD=(NStates=1) B3LYP/6-31G(d,p)
 ---------------------------------

 -------
 EMISPCT
 -------
 Symbolic Z-matrix:
 Charge =  0 Multiplicity = 1

                         Standard orientation:
 ---------------------------------------------------------------------
 Center     Atomic      Atomic             Coordinates (Angstroms)
 Number     Number       Type             X           Y           Z
 ---------------------------------------------------------------------
      1          6           0       -1.418409   -0.257282   -0.093974
      2          6           0       -0.523684   -1.309735    0.089256
      3          6           0        0.883151   -1.121233    0.040990
      4          6           0        1.388816    0.223456   -0.061794
      5          6           0        0.545152    1.319485    0.051556
      6          6           0       -0.865287    1.145388   -0.075848
      7          1           0       -2.578485   -0.290919   -0.249812
      8          1           0       -1.733228    1.860564    0.421315
      9          1           0        0.980798    2.349961    0.189149
     10          1           0        2.565493    0.329801   -0.150336
     11          1           0        1.670532   -2.037240   -0.156562
     12          1           0       -0.963542   -2.212640    0.245133
 ---------------------------------------------------------------------

 SCF Done:  E(RB3LYP) =  -232.189314426     A.U. after   13 cycles

 Excitation energies and oscillator strengths:

 Excited State   1:      Singlet-A      5.0111 eV  247.42 nm  f=0.0004  <S**2>=0.000
      20 -> 22         0.51414
      21 -> 23         0.48465
 This state for optimization and/or second-order correction.
 Total Energy, E(TD-HF/TD-DFT) =  -232.005159348
 Copying the excited state density for this state as the 1-particle RhoCI density.

 The electronic state is 1-A.
 Alpha  occ. eigenvalues --  -10.21326 -10.21178 -10.20956 -10.20502 -10.20119
 Alpha  occ. eigenvalues --  -10.19174  -0.83557  -0.74327  -0.71949  -0.59360
 Alpha  occ. eigenvalues --   -0.58279  -0.49896  -0.45167  -0.43688  -0.41588
 Alpha  occ. eigenvalues --   -0.39212  -0.35688  -0.33617  -0.32181  -0.25190
 Alpha  occ. eigenvalues --   -0.23480
 Alpha virt. eigenvalues --   -0.02470  -0.00207   0.06237   0.10910   0.12237
 Alpha virt. eigenvalues --    0.13451   0.15745   0.16118   0.17685   0.25009
 Alpha virt. eigenvalues --    0.29014   0.30112   0.32181   0.47055   0.48607

 Mulliken charges:
               1
     1  C   -0.100655
     2  C   -0.067286
     3  C   -0.093694
     4  C   -0.082627
     5  C   -0.083196
     6  C   -0.109743
     7  H    0.097424
     8  H    0.085330
     9  H    0.092996
    10  H    0.083760
    11  H    0.090136
    12  H    0.087555
 Sum of Mulliken charges =  -0.00000

 Dipole moment (field-independent basis, Debye):
    X=             -0.0501    Y=             -0.2563    Z=              0.2080  Tot=              0.3339
 Quadrupole moment (field-independent basis, Debye-Ang):
   XX=            -31.1932   YY=            -32.7452   ZZ=            -38.9932
   XY=              0.1423   XZ=             -0.6776   YZ=              0.8057

 Normal termination of Gaussian 16 at Fri Nov 10 19:46:06 2023.
