 Gaussian 16, Revision B.01,
 Gaussian 16:  EM64L-G16RevB.01 20-Dec-2017

 ---------------------------------
 # TD=(NStates=1) B3LYP/6-31G(d,p)
 ---------------------------------

 -------
 EMISPCT
 -------
 Symbolic Z-matrix:
 Charge =  0 Multiplicity = 1

                         Standard orientation:
 ---------------------------------------------------------------------
 Center     Atomic      Atomic             Coordinates (Angstroms)
 Number     Number       Type             X           Y           Z
 ---------------------------------------------------------------------
      1          6           0       -0.969465   -0.980554    0.003187
      2          6           0        0.381759   -1.355950   -0.077976
      3          6           0        1.459398   -0.342029    0.054900
      4          6           0        0.940489    1.024472   -0.028156
      5          6           0       -0.400317    1.391085   -0.006482
      6          6           0       -1.409690    0.307105   -0.003883
      7          1           0       -1.777604   -1.857788    0.145407
      8          1           0       -2.398942    0.473008    0.027832
      9          1           0       -0.673722    2.393557    0.109672
     10          1           0        1.776113    1.705696   -0.103794
     11          1           0        2.377166   -0.585905    0.173148
     12          1           0        0.683945   -2.393340   -0.001800
 ---------------------------------------------------------------------

 SCF Done:  E(RB3LYP) =  -232.204369955     A.U. after   13 cycles

 Excitation energies and oscillator strengths:

 Excited State   1:      Singlet-A      5.1132 eV  242.48 nm  f=0.0037  <S**2>=0.000
      20 -> 22         0.55564
      21 -> 23         0.43293
 This state for optimization and/or second-order correction.
 Total Energy, E(TD-HF/TD-DFT) =  -232.016464907
 Copying the excited state density for this state as the 1-particle RhoCI density.

 The electronic state is 1-A.
 Alpha  occ. eigenvalues --  -10.19639 -10.19588 -10.19526 -10.19363 -10.19156
 Alpha  occ. eigenvalues --  -10.18707  -0.83359  -0.74099  -0.73134  -0.61716
 Alpha  occ. eigenvalues --   -0.58490  -0.51345  -0.48322  -0.43537  -0.41877
 Alpha  occ. eigenvalues --   -0.40263  -0.36378  -0.34897  -0.31809  -0.24611
 Alpha  occ. eigenvalues --   -0.23619
 Alpha virt. eigenvalues --   -0.01895   0.00611   0.09016   0.13746   0.14255
 Alpha virt. eigenvalues --    0.16145   0.16996   0.18546   0.19756   0.27089
 Alpha virt. eigenvalues --    0.28018   0.30111   0.32068   0.47348   0.48539

 Mulliken charges:
               1
     1  C   -0.071685
     2  C   -0.101206
     3  C   -0.062050
     4  C   -0.095784
     5  C   -0.086206
     6  C   -0.075339
     7  H    0.073653
     8  H    0.083577
     9  H    0.091994
    10  H    0.081618
    11  H    0.077640
    12  H    0.083789
 Sum of Mulliken charges =  -0.00000

 Dipole moment (field-independent basis, Debye):
    X=              0.1000    Y=              0.0329    Z=              0.2277  Tot=              0.2509
 Quadrupole moment (field-independent basis, Debye-Ang):
   XX=            -30.7391   YY=            -31.9686   ZZ=            -38.6776
   XY=             -0.4439   XZ=             -0.0580   YZ=             -0.1836

 Normal termination of Gaussian 16 at Fri Nov 10 20:50:50 2023.
