 Gaussian 16, Revision B.01,
 Gaussian 16:  EM64L-G16RevB.01 20-Dec-2017

 ---------------------------------
 # TD=(NStates=1) B3LYP/6-31G(d,p)
 ---------------------------------

 -------
 EMISPCT
 -------
 Symbolic Z-matrix:
 Charge =  0 Multiplicity = 1

                         Standard orientation:
 ---------------------------------------------------------------------
 Center     Atomic      Atomic             Coordinates (Angstroms)
 Number     Number       Type             X           Y           Z
 ---------------------------------------------------------------------
      1          6           0       -0.630786    1.283801    0.063603
      2          6           0        0.761494    1.167806   -0.049121
      3          6           0        1.474450   -0.125885    0.035154
      4          6           0        0.614851   -1.277591    0.025187
      5          6           0       -0.826326   -1.199890   -0.017497
      6          6           0       -1.438211    0.113752   -0.060944
      7          1           0       -1.159788    2.190455   -0.048269
      8          1           0       -2.491083    0.087289    0.234584
      9          1           0       -1.419592   -1.893061   -0.117415
     10          1           0        1.232242   -2.243458    0.058252
     11          1           0        2.560285   -0.006631   -0.097100
     12          1           0        1.545104    2.093445   -0.008340
 ---------------------------------------------------------------------

 SCF Done:  E(RB3LYP) =  -232.187247885     A.U. after   13 cycles

 Excitation energies and oscillator strengths:

 Excited State   1:      Singlet-A      5.0630 eV  244.88 nm  f=0.0010  <S**2>=0.000
      20 -> 22         0.49647
      20 -> 23         0.12138
      21 -> 22         0.16223
      21 -> 23        -0.46059
 This state for optimization and/or second-order correction.
 Total Energy, E(TD-HF/TD-DFT) =  -232.001184320
 Copying the excited state density for this state as the 1-particle RhoCI density.

 The electronic state is 1-A.
 Alpha  occ. eigenvalues --  -10.20940 -10.20862 -10.20440 -10.19699 -10.19304
 Alpha  occ. eigenvalues --  -10.18646  -0.83066  -0.73561  -0.73385  -0.60231
 Alpha  occ. eigenvalues --   -0.59265  -0.51590  -0.46109  -0.44173  -0.41346
 Alpha  occ. eigenvalues --   -0.40219  -0.35811  -0.34287  -0.31703  -0.24727
 Alpha  occ. eigenvalues --   -0.24026
 Alpha virt. eigenvalues --   -0.01811  -0.00606   0.07919   0.13010   0.13505
 Alpha virt. eigenvalues --    0.14426   0.16350   0.17161   0.19834   0.26127
 Alpha virt. eigenvalues --    0.26710   0.30496   0.31840   0.44906   0.47141

 Mulliken charges:
               1
     1  C   -0.080296
     2  C   -0.089435
     3  C   -0.087586
     4  C   -0.096854
     5  C   -0.039756
     6  C   -0.116572
     7  H    0.093065
     8  H    0.092896
     9  H    0.066847
    10  H    0.082311
    11  H    0.104413
    12  H    0.070967
 Sum of Mulliken charges =  -0.00000

 Dipole moment (field-independent basis, Debye):
    X=              0.0045    Y=             -0.0721    Z=              0.0057  Tot=              0.0725
 Quadrupole moment (field-independent basis, Debye-Ang):
   XX=            -30.5354   YY=            -32.6469   ZZ=            -38.9299
   XY=              0.3751   XZ=             -0.4688   YZ=             -0.0039

 Normal termination of Gaussian 16 at Fri Nov 10 19:37:28 2023.
