 Gaussian 16, Revision B.01,
 Gaussian 16:  EM64L-G16RevB.01 20-Dec-2017

 ---------------------------------
 # TD=(NStates=1) B3LYP/6-31G(d,p)
 ---------------------------------

 -------
 EMISPCT
 -------
 Symbolic Z-matrix:
 Charge =  0 Multiplicity = 1

                         Standard orientation:
 ---------------------------------------------------------------------
 Center     Atomic      Atomic             Coordinates (Angstroms)
 Number     Number       Type             X           Y           Z
 ---------------------------------------------------------------------
      1          6           0       -1.474537   -0.182805   -0.043697
      2          6           0       -0.849153    1.160211    0.066235
      3          6           0        0.586800    1.268388    0.019638
      4          6           0        1.402470    0.144747   -0.030987
      5          6           0        0.858249   -1.108544    0.028916
      6          6           0       -0.598618   -1.278344   -0.045505
      7          1           0       -2.594900   -0.277145   -0.048556
      8          1           0       -0.745188   -2.321782    0.041904
      9          1           0        1.535126   -2.013361    0.341867
     10          1           0        2.443723    0.255005   -0.333998
     11          1           0        1.171110    2.229805    0.027322
     12          1           0       -1.361143    2.105554    0.003860
 ---------------------------------------------------------------------

 SCF Done:  E(RB3LYP) =  -232.218333531     A.U. after   13 cycles

 Excitation energies and oscillator strengths:

 Excited State   1:      Singlet-A      5.1227 eV  242.03 nm  f=0.0006  <S**2>=0.000
      20 -> 22        -0.47995
      21 -> 22         0.12735
      21 -> 23         0.49458
 This state for optimization and/or second-order correction.
 Total Energy, E(TD-HF/TD-DFT) =  -232.030077816
 Copying the excited state density for this state as the 1-particle RhoCI density.

 The electronic state is 1-A.
 Alpha  occ. eigenvalues --  -10.21083 -10.20359 -10.19709 -10.19557 -10.19533
 Alpha  occ. eigenvalues --  -10.18362  -0.83557  -0.73997  -0.72756  -0.59651
 Alpha  occ. eigenvalues --   -0.59321  -0.50817  -0.45691  -0.43528  -0.41734
 Alpha  occ. eigenvalues --   -0.40275  -0.35987  -0.34005  -0.32464  -0.24866
 Alpha  occ. eigenvalues --   -0.23579
 Alpha virt. eigenvalues --   -0.01401  -0.00196   0.08309   0.13008   0.13184
 Alpha virt. eigenvalues --    0.14856   0.15795   0.17716   0.18577   0.26438
 Alpha virt. eigenvalues --    0.28982   0.30245   0.32290   0.47229   0.48689

 Mulliken charges:
               1
     1  C   -0.100108
     2  C   -0.104010
     3  C   -0.085423
     4  C   -0.071185
     5  C   -0.109207
     6  C   -0.075202
     7  H    0.098243
     8  H    0.091001
     9  H    0.086522
    10  H    0.088278
    11  H    0.086661
    12  H    0.094430
 Sum of Mulliken charges =  -0.00000

 Dipole moment (field-independent basis, Debye):
    X=              0.0846    Y=              0.0243    Z=              0.0076  Tot=              0.0883
 Quadrupole moment (field-independent basis, Debye-Ang):
   XX=            -31.6544   YY=            -31.6139   ZZ=            -38.8000
   XY=             -0.1391   XZ=             -0.1209   YZ=             -0.6417

 Normal termination of Gaussian 16 at Fri Nov 10 21:14:29 2023.
