 Gaussian 16, Revision B.01,
 Gaussian 16:  EM64L-G16RevB.01 20-Dec-2017

 ---------------------------------
 # TD=(NStates=1) B3LYP/6-31G(d,p)
 ---------------------------------

 -------
 EMISPCT
 -------
 Symbolic Z-matrix:
 Charge =  0 Multiplicity = 1

                         Standard orientation:
 ---------------------------------------------------------------------
 Center     Atomic      Atomic             Coordinates (Angstroms)
 Number     Number       Type             X           Y           Z
 ---------------------------------------------------------------------
      1          6           0        0.296196   -1.367382   -0.072064
      2          6           0       -1.125273   -0.939056    0.047362
      3          6           0       -1.383717    0.434565   -0.067318
      4          6           0       -0.218205    1.436266   -0.008569
      5          6           0        1.041208    0.901626   -0.047042
      6          6           0        1.380028   -0.451380   -0.084643
      7          1           0        0.481387   -2.450387    0.014196
      8          1           0        2.448699   -0.816153    0.414574
      9          1           0        1.952163    1.565344    0.251110
     10          1           0       -0.529272    2.445597    0.428307
     11          1           0       -2.409509    0.893971   -0.238301
     12          1           0       -1.884894   -1.726217    0.523763
 ---------------------------------------------------------------------

 SCF Done:  E(RB3LYP) =  -232.181029795     A.U. after   13 cycles

 Excitation energies and oscillator strengths:

 Excited State   1:      Singlet-A      4.8125 eV  257.63 nm  f=0.0013  <S**2>=0.000
      20 -> 22         0.51910
      21 -> 22         0.10873
      21 -> 23        -0.46323
 This state for optimization and/or second-order correction.
 Total Energy, E(TD-HF/TD-DFT) =  -232.004173125
 Copying the excited state density for this state as the 1-particle RhoCI density.

 The electronic state is 1-A.
 Alpha  occ. eigenvalues --  -10.21350 -10.21162 -10.20772 -10.20681 -10.20446
 Alpha  occ. eigenvalues --  -10.19722  -0.83301  -0.73561  -0.72445  -0.59430
 Alpha  occ. eigenvalues --   -0.57818  -0.49587  -0.45116  -0.43303  -0.41019
 Alpha  occ. eigenvalues --   -0.39782  -0.34905  -0.34795  -0.31853  -0.24620
 Alpha  occ. eigenvalues --   -0.23280
 Alpha virt. eigenvalues --   -0.02647  -0.00628   0.05166   0.10695   0.12388
 Alpha virt. eigenvalues --    0.12862   0.15435   0.16375   0.18436   0.24677
 Alpha virt. eigenvalues --    0.28055   0.30304   0.32749   0.45542   0.47044

 Mulliken charges:
               1
     1  C   -0.102624
     2  C   -0.081009
     3  C   -0.116203
     4  C   -0.092563
     5  C   -0.077848
     6  C   -0.085114
     7  H    0.088750
     8  H    0.093271
     9  H    0.074531
    10  H    0.105179
    11  H    0.095118
    12  H    0.098511
 Sum of Mulliken charges =  -0.00000

 Dipole moment (field-independent basis, Debye):
    X=             -0.1824    Y=             -0.0806    Z=              0.8530  Tot=              0.8760
 Quadrupole moment (field-independent basis, Debye-Ang):
   XX=            -32.3201   YY=            -32.2901   ZZ=            -38.6561
   XY=             -0.5338   XZ=              0.6318   YZ=             -0.0727

 Normal termination of Gaussian 16 at Fri Nov 10 20:43:31 2023.
