 Gaussian 16, Revision B.01,
 Gaussian 16:  EM64L-G16RevB.01 20-Dec-2017

 ---------------------------------
 # TD=(NStates=1) B3LYP/6-31G(d,p)
 ---------------------------------

 -------
 EMISPCT
 -------
 Symbolic Z-matrix:
 Charge =  0 Multiplicity = 1

                         Standard orientation:
 ---------------------------------------------------------------------
 Center     Atomic      Atomic             Coordinates (Angstroms)
 Number     Number       Type             X           Y           Z
 ---------------------------------------------------------------------
      1          6           0        0.858925   -1.130488    0.083445
      2          6           0       -0.584898   -1.295524   -0.058541
      3          6           0       -1.462792   -0.155619    0.009905
      4          6           0       -0.816208    1.110212   -0.042306
      5          6           0        0.523910    1.306859    0.033882
      6          6           0        1.477394    0.139199   -0.063575
      7          1           0        1.576175   -1.927370    0.215598
      8          1           0        2.477583    0.243532   -0.175046
      9          1           0        0.994439    2.354698    0.207172
     10          1           0       -1.434715    1.994585   -0.158396
     11          1           0       -2.487680   -0.136665    0.354353
     12          1           0       -1.103795   -2.376608   -0.220541
 ---------------------------------------------------------------------

 SCF Done:  E(RB3LYP) =  -232.201637311     A.U. after   13 cycles

 Excitation energies and oscillator strengths:

 Excited State   1:      Singlet-A      4.8183 eV  257.32 nm  f=0.0042  <S**2>=0.000
      20 -> 22         0.52467
      20 -> 23         0.10085
      21 -> 22         0.19511
      21 -> 23        -0.41882
 This state for optimization and/or second-order correction.
 Total Energy, E(TD-HF/TD-DFT) =  -232.024568134
 Copying the excited state density for this state as the 1-particle RhoCI density.

 The electronic state is 1-A.
 Alpha  occ. eigenvalues --  -10.21454 -10.20076 -10.20020 -10.19783 -10.19581
 Alpha  occ. eigenvalues --  -10.18601  -0.83173  -0.74029  -0.72372  -0.60207
 Alpha  occ. eigenvalues --   -0.58354  -0.50380  -0.47117  -0.43298  -0.41550
 Alpha  occ. eigenvalues --   -0.39660  -0.36547  -0.34217  -0.32527  -0.24045
 Alpha  occ. eigenvalues --   -0.23015
 Alpha virt. eigenvalues --   -0.02191   0.00022   0.07640   0.12559   0.13660
 Alpha virt. eigenvalues --    0.14996   0.15233   0.18233   0.18452   0.26678
 Alpha virt. eigenvalues --    0.28642   0.28878   0.32595   0.46234   0.48081

 Mulliken charges:
               1
     1  C   -0.085077
     2  C   -0.105327
     3  C   -0.090509
     4  C   -0.080349
     5  C   -0.089350
     6  C   -0.086440
     7  H    0.089778
     8  H    0.091670
     9  H    0.083347
    10  H    0.083983
    11  H    0.105973
    12  H    0.082300
 Sum of Mulliken charges =   0.00000

 Dipole moment (field-independent basis, Debye):
    X=              0.1281    Y=              0.0839    Z=              0.1583  Tot=              0.2202
 Quadrupole moment (field-independent basis, Debye-Ang):
   XX=            -30.7600   YY=            -32.4674   ZZ=            -38.7633
   XY=             -0.2057   XZ=             -0.3679   YZ=              0.1145

 Normal termination of Gaussian 16 at Fri Nov 10 21:23:43 2023.
