 Gaussian 16, Revision B.01,
 Gaussian 16:  EM64L-G16RevB.01 20-Dec-2017

 ---------------------------------
 # TD=(NStates=1) B3LYP/6-31G(d,p)
 ---------------------------------

 -------
 EMISPCT
 -------
 Symbolic Z-matrix:
 Charge =  0 Multiplicity = 1

                         Standard orientation:
 ---------------------------------------------------------------------
 Center     Atomic      Atomic             Coordinates (Angstroms)
 Number     Number       Type             X           Y           Z
 ---------------------------------------------------------------------
      1          6           0       -0.936319    0.991084   -0.083235
      2          6           0        0.405209    1.381805    0.036465
      3          6           0        1.431657    0.342290   -0.030387
      4          6           0        0.972755   -1.025524   -0.066788
      5          6           0       -0.435726   -1.339085    0.051081
      6          6           0       -1.414913   -0.314463    0.029925
      7          1           0       -1.799629    1.608729   -0.212018
      8          1           0       -2.410018   -0.499134    0.124585
      9          1           0       -0.645835   -2.384412    0.057284
     10          1           0        1.708533   -1.924474   -0.010693
     11          1           0        2.416290    0.411527    0.113779
     12          1           0        0.594682    2.571123    0.304694
 ---------------------------------------------------------------------

 SCF Done:  E(RB3LYP) =  -232.206651459     A.U. after   13 cycles

 Excitation energies and oscillator strengths:

 Excited State   1:      Singlet-A      5.1236 eV  241.99 nm  f=0.0022  <S**2>=0.000
      20 -> 22         0.30344
      20 -> 23         0.35142
      21 -> 22         0.43174
      21 -> 23        -0.31236
 This state for optimization and/or second-order correction.
 Total Energy, E(TD-HF/TD-DFT) =  -232.018362205
 Copying the excited state density for this state as the 1-particle RhoCI density.

 The electronic state is 1-A.
 Alpha  occ. eigenvalues --  -10.21489 -10.20276 -10.19638 -10.19160 -10.18773
 Alpha  occ. eigenvalues --  -10.18546  -0.83522  -0.74208  -0.72761  -0.60998
 Alpha  occ. eigenvalues --   -0.58448  -0.51100  -0.47076  -0.43763  -0.41412
 Alpha  occ. eigenvalues --   -0.39973  -0.35624  -0.34399  -0.32707  -0.24519
 Alpha  occ. eigenvalues --   -0.23845
 Alpha virt. eigenvalues --   -0.01051  -0.00395   0.07928   0.12489   0.14163
 Alpha virt. eigenvalues --    0.14220   0.16481   0.18700   0.19771   0.27783
 Alpha virt. eigenvalues --    0.28992   0.29537   0.31192   0.47349   0.49855

 Mulliken charges:
               1
     1  C   -0.077031
     2  C   -0.097297
     3  C   -0.084426
     4  C   -0.102451
     5  C   -0.084858
     6  C   -0.069276
     7  H    0.082878
     8  H    0.088745
     9  H    0.082570
    10  H    0.084959
    11  H    0.089692
    12  H    0.086496
 Sum of Mulliken charges =  -0.00000

 Dipole moment (field-independent basis, Debye):
    X=             -0.1704    Y=             -0.1464    Z=              0.2486  Tot=              0.3351
 Quadrupole moment (field-independent basis, Debye-Ang):
   XX=            -30.9493   YY=            -32.0895   ZZ=            -38.7867
   XY=             -0.4007   XZ=              0.4052   YZ=              0.2436

 Normal termination of Gaussian 16 at Fri Nov 10 22:38:57 2023.
