 Gaussian 16, Revision B.01,
 Gaussian 16:  EM64L-G16RevB.01 20-Dec-2017

 ---------------------------------
 # TD=(NStates=1) B3LYP/6-31G(d,p)
 ---------------------------------

 -------
 EMISPCT
 -------
 Symbolic Z-matrix:
 Charge =  0 Multiplicity = 1

                         Standard orientation:
 ---------------------------------------------------------------------
 Center     Atomic      Atomic             Coordinates (Angstroms)
 Number     Number       Type             X           Y           Z
 ---------------------------------------------------------------------
      1          6           0       -1.455707    0.147600   -0.016624
      2          6           0       -0.627236    1.273451   -0.061148
      3          6           0        0.828990    1.147175    0.097389
      4          6           0        1.434980   -0.148226   -0.041012
      5          6           0        0.626391   -1.281553   -0.045226
      6          6           0       -0.843444   -1.109842   -0.018633
      7          1           0       -2.647566   -0.073151    0.150445
      8          1           0       -1.427393   -1.987115    0.217388
      9          1           0        1.053532   -2.286964    0.142961
     10          1           0        2.728544   -0.245318   -0.035089
     11          1           0        1.538128    2.122979    0.101147
     12          1           0       -1.029099    2.297939   -0.065329
 ---------------------------------------------------------------------

 SCF Done:  E(RB3LYP) =  -232.193139204     A.U. after   13 cycles

 Excitation energies and oscillator strengths:

 Excited State   1:      Singlet-A      5.1577 eV  240.39 nm  f=0.0000  <S**2>=0.000
      20 -> 22         0.50207
      21 -> 23         0.49657
 This state for optimization and/or second-order correction.
 Total Energy, E(TD-HF/TD-DFT) =  -232.003596638
 Copying the excited state density for this state as the 1-particle RhoCI density.

 The electronic state is 1-A.
 Alpha  occ. eigenvalues --  -10.21590 -10.21548 -10.20819 -10.20707 -10.20106
 Alpha  occ. eigenvalues --  -10.19605  -0.83526  -0.73950  -0.72415  -0.59868
 Alpha  occ. eigenvalues --   -0.57646  -0.49801  -0.44845  -0.43748  -0.40261
 Alpha  occ. eigenvalues --   -0.39869  -0.35251  -0.34477  -0.32242  -0.25291
 Alpha  occ. eigenvalues --   -0.23729
 Alpha virt. eigenvalues --   -0.01782  -0.00155   0.05539   0.09002   0.12887
 Alpha virt. eigenvalues --    0.13552   0.15034   0.15901   0.18567   0.26469
 Alpha virt. eigenvalues --    0.28855   0.29961   0.31335   0.46512   0.48732

 Mulliken charges:
               1
     1  C   -0.063506
     2  C   -0.116712
     3  C   -0.089680
     4  C   -0.076686
     5  C   -0.085954
     6  C   -0.095534
     7  H    0.092235
     8  H    0.088576
     9  H    0.094366
    10  H    0.070009
    11  H    0.088839
    12  H    0.094048
 Sum of Mulliken charges =  -0.00000

 Dipole moment (field-independent basis, Debye):
    X=             -0.0875    Y=             -0.1168    Z=              0.3045  Tot=              0.3376
 Quadrupole moment (field-independent basis, Debye-Ang):
   XX=            -31.8395   YY=            -31.7951   ZZ=            -39.3023
   XY=              0.5753   XZ=             -0.3280   YZ=             -0.6542

 Normal termination of Gaussian 16 at Fri Nov 10 21:55:09 2023.
