 Gaussian 16, Revision B.01,
 Gaussian 16:  EM64L-G16RevB.01 20-Dec-2017

 ---------------------------------
 # TD=(NStates=1) B3LYP/6-31G(d,p)
 ---------------------------------

 -------
 EMISPCT
 -------
 Symbolic Z-matrix:
 Charge =  0 Multiplicity = 1

                         Standard orientation:
 ---------------------------------------------------------------------
 Center     Atomic      Atomic             Coordinates (Angstroms)
 Number     Number       Type             X           Y           Z
 ---------------------------------------------------------------------
      1          6           0       -1.148746    0.820381   -0.041116
      2          6           0       -1.369584   -0.549802   -0.033801
      3          6           0       -0.187730   -1.341848    0.024994
      4          6           0        1.195369   -0.869237   -0.056468
      5          6           0        1.324187    0.559372   -0.032119
      6          6           0        0.168167    1.381304    0.120202
      7          1           0       -1.906790    1.623917   -0.233229
      8          1           0        0.311001    2.585660    0.099559
      9          1           0        2.230943    1.086549   -0.109223
     10          1           0        2.027018   -1.650989    0.060263
     11          1           0       -0.288147   -2.540001    0.158872
     12          1           0       -2.264003   -1.106157    0.133605
 ---------------------------------------------------------------------

 SCF Done:  E(RB3LYP) =  -232.211451229     A.U. after   12 cycles

 Excitation energies and oscillator strengths:

 Excited State   1:      Singlet-A      5.1065 eV  242.80 nm  f=0.0014  <S**2>=0.000
      20 -> 22        -0.43003
      20 -> 23        -0.21137
      21 -> 22        -0.24865
      21 -> 23         0.45631
 This state for optimization and/or second-order correction.
 Total Energy, E(TD-HF/TD-DFT) =  -232.023789661
 Copying the excited state density for this state as the 1-particle RhoCI density.

 The electronic state is 1-A.
 Alpha  occ. eigenvalues --  -10.20843 -10.20788 -10.20661 -10.20192 -10.19803
 Alpha  occ. eigenvalues --  -10.19597  -0.83514  -0.74172  -0.72216  -0.60157
 Alpha  occ. eigenvalues --   -0.57843  -0.50513  -0.45844  -0.43824  -0.41745
 Alpha  occ. eigenvalues --   -0.39152  -0.35301  -0.33647  -0.33237  -0.24797
 Alpha  occ. eigenvalues --   -0.23815
 Alpha virt. eigenvalues --   -0.01197  -0.00666   0.06960   0.11699   0.13438
 Alpha virt. eigenvalues --    0.13929   0.16096   0.17309   0.17722   0.25860
 Alpha virt. eigenvalues --    0.28522   0.30595   0.31614   0.46292   0.48218

 Mulliken charges:
               1
     1  C   -0.099675
     2  C   -0.065616
     3  C   -0.103361
     4  C   -0.086041
     5  C   -0.089281
     6  C   -0.084437
     7  H    0.089727
     8  H    0.079411
     9  H    0.090591
    10  H    0.099659
    11  H    0.067962
    12  H    0.101061
 Sum of Mulliken charges =  -0.00000

 Dipole moment (field-independent basis, Debye):
    X=              0.0558    Y=              0.0380    Z=              0.0409  Tot=              0.0790
 Quadrupole moment (field-independent basis, Debye-Ang):
   XX=            -31.8788   YY=            -31.5265   ZZ=            -39.1134
   XY=              0.1137   XZ=             -0.0268   YZ=             -0.7802

 Normal termination of Gaussian 16 at Fri Nov 10 22:13:07 2023.
