 Gaussian 16, Revision B.01,
 Gaussian 16:  EM64L-G16RevB.01 20-Dec-2017

 ---------------------------------
 # TD=(NStates=1) B3LYP/6-31G(d,p)
 ---------------------------------

 -------
 EMISPCT
 -------
 Symbolic Z-matrix:
 Charge =  0 Multiplicity = 1

                         Standard orientation:
 ---------------------------------------------------------------------
 Center     Atomic      Atomic             Coordinates (Angstroms)
 Number     Number       Type             X           Y           Z
 ---------------------------------------------------------------------
      1          6           0        1.143122   -0.799496   -0.055769
      2          6           0       -0.127723   -1.404977    0.008815
      3          6           0       -1.274141   -0.632316    0.004024
      4          6           0       -1.154122    0.796993    0.026849
      5          6           0        0.045662    1.350138   -0.048451
      6          6           0        1.316672    0.620174    0.008806
      7          1           0        2.218323   -1.222267   -0.143886
      8          1           0        2.358858    1.175269    0.178482
      9          1           0        0.091693    2.565508    0.207415
     10          1           0       -2.036323    1.417211   -0.125707
     11          1           0       -2.255132   -0.986323   -0.086667
     12          1           0       -0.074241   -2.532494    0.304716
 ---------------------------------------------------------------------

 SCF Done:  E(RB3LYP) =  -232.198413339     A.U. after   13 cycles

 Excitation energies and oscillator strengths:

 Excited State   1:      Singlet-A      5.2965 eV  234.09 nm  f=0.0000  <S**2>=0.000
      20 -> 22        -0.49807
      21 -> 23         0.50128
 This state for optimization and/or second-order correction.
 Total Energy, E(TD-HF/TD-DFT) =  -232.003772076
 Copying the excited state density for this state as the 1-particle RhoCI density.

 The electronic state is 1-A.
 Alpha  occ. eigenvalues --  -10.20961 -10.20433 -10.20369 -10.19934 -10.19273
 Alpha  occ. eigenvalues --  -10.18620  -0.84576  -0.74311  -0.73245  -0.60138
 Alpha  occ. eigenvalues --   -0.58235  -0.50458  -0.45115  -0.44305  -0.40889
 Alpha  occ. eigenvalues --   -0.39941  -0.36347  -0.35272  -0.30419  -0.25375
 Alpha  occ. eigenvalues --   -0.24140
 Alpha virt. eigenvalues --   -0.01400   0.00017   0.06998   0.10797   0.12819
 Alpha virt. eigenvalues --    0.14440   0.15777   0.16440   0.18658   0.28004
 Alpha virt. eigenvalues --    0.28103   0.30154   0.33785   0.45899   0.49987

 Mulliken charges:
               1
     1  C   -0.092382
     2  C   -0.089735
     3  C   -0.091118
     4  C   -0.069232
     5  C   -0.082168
     6  C   -0.096880
     7  H    0.090224
     8  H    0.099291
     9  H    0.055182
    10  H    0.092092
    11  H    0.091860
    12  H    0.092865
 Sum of Mulliken charges =  -0.00000

 Dipole moment (field-independent basis, Debye):
    X=              0.0051    Y=             -0.0576    Z=              0.1694  Tot=              0.1790
 Quadrupole moment (field-independent basis, Debye-Ang):
   XX=            -30.7737   YY=            -33.2015   ZZ=            -38.8071
   XY=              0.0571   XZ=              0.5143   YZ=             -0.0357

 Normal termination of Gaussian 16 at Fri Nov 10 20:37:42 2023.
