 Gaussian 16, Revision B.01,
 Gaussian 16:  EM64L-G16RevB.01 20-Dec-2017

 ---------------------------------
 # TD=(NStates=1) B3LYP/6-31G(d,p)
 ---------------------------------

 -------
 EMISPCT
 -------
 Symbolic Z-matrix:
 Charge =  0 Multiplicity = 1

                         Standard orientation:
 ---------------------------------------------------------------------
 Center     Atomic      Atomic             Coordinates (Angstroms)
 Number     Number       Type             X           Y           Z
 ---------------------------------------------------------------------
      1          6           0        0.932712   -1.135976   -0.042981
      2          6           0        1.408376    0.140534    0.072876
      3          6           0        0.514809    1.342250   -0.057236
      4          6           0       -0.811472    1.141911   -0.091951
      5          6           0       -1.447354   -0.183822    0.149082
      6          6           0       -0.586048   -1.314817   -0.021885
      7          1           0        1.656879   -1.849048   -0.220749
      8          1           0       -1.058464   -2.366314   -0.094461
      9          1           0       -2.530518   -0.322917   -0.000758
     10          1           0       -1.594941    1.939697   -0.067274
     11          1           0        1.045707    2.351558    0.060605
     12          1           0        2.415188    0.306537    0.275209
 ---------------------------------------------------------------------

 SCF Done:  E(RB3LYP) =  -232.206511210     A.U. after   13 cycles

 Excitation energies and oscillator strengths:

 Excited State   1:      Singlet-A      5.0912 eV  243.53 nm  f=0.0006  <S**2>=0.000
      20 -> 22         0.51026
      21 -> 22         0.10697
      21 -> 23        -0.47052
 This state for optimization and/or second-order correction.
 Total Energy, E(TD-HF/TD-DFT) =  -232.019413944
 Copying the excited state density for this state as the 1-particle RhoCI density.

 The electronic state is 1-A.
 Alpha  occ. eigenvalues --  -10.21409 -10.20180 -10.19975 -10.19746 -10.19460
 Alpha  occ. eigenvalues --  -10.19092  -0.82884  -0.74021  -0.72469  -0.59205
 Alpha  occ. eigenvalues --   -0.58947  -0.50509  -0.46607  -0.43242  -0.41632
 Alpha  occ. eigenvalues --   -0.40419  -0.35223  -0.34188  -0.32210  -0.24549
 Alpha  occ. eigenvalues --   -0.23924
 Alpha virt. eigenvalues --   -0.01539  -0.00458   0.08744   0.12492   0.13473
 Alpha virt. eigenvalues --    0.14511   0.15573   0.17601   0.18714   0.25907
 Alpha virt. eigenvalues --    0.26398   0.29415   0.33018   0.44681   0.46849

 Mulliken charges:
               1
     1  C   -0.076394
     2  C   -0.089104
     3  C   -0.078207
     4  C   -0.094523
     5  C   -0.096137
     6  C   -0.106045
     7  H    0.091719
     8  H    0.087452
     9  H    0.096859
    10  H    0.085926
    11  H    0.091404
    12  H    0.087052
 Sum of Mulliken charges =  -0.00000

 Dipole moment (field-independent basis, Debye):
    X=              0.1549    Y=             -0.0314    Z=             -0.0579  Tot=              0.1683
 Quadrupole moment (field-independent basis, Debye-Ang):
   XX=            -30.7411   YY=            -32.2029   ZZ=            -38.9548
   XY=              0.1173   XZ=              0.4841   YZ=              0.6921

 Normal termination of Gaussian 16 at Fri Nov 10 21:44:53 2023.
