 Gaussian 16, Revision B.01,
 Gaussian 16:  EM64L-G16RevB.01 20-Dec-2017

 ---------------------------------
 # TD=(NStates=1) B3LYP/6-31G(d,p)
 ---------------------------------

 -------
 EMISPCT
 -------
 Symbolic Z-matrix:
 Charge =  0 Multiplicity = 1

                         Standard orientation:
 ---------------------------------------------------------------------
 Center     Atomic      Atomic             Coordinates (Angstroms)
 Number     Number       Type             X           Y           Z
 ---------------------------------------------------------------------
      1          6           0        0.801003   -1.176956    0.025922
      2          6           0        1.427662    0.068313    0.019840
      3          6           0        0.641652    1.272858   -0.006953
      4          6           0       -0.831566    1.142726    0.040238
      5          6           0       -1.429520   -0.081058   -0.034353
      6          6           0       -0.551157   -1.235804   -0.072380
      7          1           0        1.343781   -2.020689   -0.084264
      8          1           0       -1.348859   -2.136670    0.321238
      9          1           0       -2.649657   -0.176963   -0.037401
     10          1           0       -1.290320    1.989550    0.049480
     11          1           0        1.144499    2.197613   -0.086925
     12          1           0        2.452109    0.206692    0.003980
 ---------------------------------------------------------------------

 SCF Done:  E(RB3LYP) =  -232.183374259     A.U. after   13 cycles

 Excitation energies and oscillator strengths:

 Excited State   1:      Singlet-A      5.2581 eV  235.80 nm  f=0.0004  <S**2>=0.000
      20 -> 22         0.48449
      21 -> 23         0.51024
 This state for optimization and/or second-order correction.
 Total Energy, E(TD-HF/TD-DFT) =  -231.990141835
 Copying the excited state density for this state as the 1-particle RhoCI density.

 The electronic state is 1-A.
 Alpha  occ. eigenvalues --  -10.20366 -10.20310 -10.19603 -10.18921 -10.18371
 Alpha  occ. eigenvalues --  -10.18206  -0.84252  -0.75094  -0.72901  -0.60771
 Alpha  occ. eigenvalues --   -0.59335  -0.51513  -0.47130  -0.44053  -0.42427
 Alpha  occ. eigenvalues --   -0.39913  -0.36046  -0.33763  -0.31936  -0.25455
 Alpha  occ. eigenvalues --   -0.23696
 Alpha virt. eigenvalues --   -0.01461   0.00137   0.06878   0.12771   0.13791
 Alpha virt. eigenvalues --    0.15420   0.16888   0.18569   0.19843   0.26679
 Alpha virt. eigenvalues --    0.29164   0.30815   0.33259   0.46387   0.49356

 Mulliken charges:
               1
     1  C   -0.067601
     2  C   -0.082975
     3  C   -0.101890
     4  C   -0.049867
     5  C   -0.090111
     6  C   -0.094915
     7  H    0.090785
     8  H    0.067077
     9  H    0.085778
    10  H    0.070088
    11  H    0.089534
    12  H    0.084097
 Sum of Mulliken charges =  -0.00000

 Dipole moment (field-independent basis, Debye):
    X=              0.1745    Y=              0.3907    Z=              0.0760  Tot=              0.4346
 Quadrupole moment (field-independent basis, Debye-Ang):
   XX=            -30.9600   YY=            -32.4738   ZZ=            -38.5804
   XY=             -0.0441   XZ=             -0.5382   YZ=             -0.4202

 Normal termination of Gaussian 16 at Fri Nov 10 22:04:32 2023.
