 Gaussian 16, Revision B.01,
 Gaussian 16:  EM64L-G16RevB.01 20-Dec-2017

 ---------------------------------
 # TD=(NStates=1) B3LYP/6-31G(d,p)
 ---------------------------------

 -------
 EMISPCT
 -------
 Symbolic Z-matrix:
 Charge =  0 Multiplicity = 1

                         Standard orientation:
 ---------------------------------------------------------------------
 Center     Atomic      Atomic             Coordinates (Angstroms)
 Number     Number       Type             X           Y           Z
 ---------------------------------------------------------------------
      1          6           0        0.790710    1.170367    0.009035
      2          6           0        1.454125   -0.100382   -0.040404
      3          6           0        0.616680   -1.283156    0.048717
      4          6           0       -0.789047   -1.196503    0.025857
      5          6           0       -1.423138    0.055178   -0.115466
      6          6           0       -0.622702    1.287463    0.051274
      7          1           0        1.467110    2.131956   -0.130171
      8          1           0       -1.269527    2.322909    0.297657
      9          1           0       -2.556800    0.174271   -0.163198
     10          1           0       -1.475570   -1.960335    0.189874
     11          1           0        1.233041   -2.148181   -0.046176
     12          1           0        2.441982   -0.118421   -0.022056
 ---------------------------------------------------------------------

 SCF Done:  E(RB3LYP) =  -232.202717535     A.U. after   13 cycles

 Excitation energies and oscillator strengths:

 Excited State   1:      Singlet-A      5.0305 eV  246.47 nm  f=0.0013  <S**2>=0.000
      20 -> 22         0.49223
      20 -> 23         0.13235
      21 -> 22        -0.20275
      21 -> 23         0.44545
 This state for optimization and/or second-order correction.
 Total Energy, E(TD-HF/TD-DFT) =  -232.017851044
 Copying the excited state density for this state as the 1-particle RhoCI density.

 The electronic state is 1-A.
 Alpha  occ. eigenvalues --  -10.21452 -10.20484 -10.20462 -10.19655 -10.19319
 Alpha  occ. eigenvalues --  -10.18926  -0.83221  -0.73873  -0.72682  -0.59876
 Alpha  occ. eigenvalues --   -0.59043  -0.50687  -0.46155  -0.43806  -0.41673
 Alpha  occ. eigenvalues --   -0.39636  -0.35490  -0.34686  -0.32428  -0.24428
 Alpha  occ. eigenvalues --   -0.23677
 Alpha virt. eigenvalues --   -0.01551  -0.00305   0.07095   0.12941   0.13381
 Alpha virt. eigenvalues --    0.13816   0.15767   0.17609   0.19206   0.26862
 Alpha virt. eigenvalues --    0.27993   0.29783   0.31877   0.47164   0.49158

 Mulliken charges:
               1
     1  C   -0.094431
     2  C   -0.068642
     3  C   -0.096410
     4  C   -0.073752
     5  C   -0.099214
     6  C   -0.089087
     7  H    0.079409
     8  H    0.084245
     9  H    0.090135
    10  H    0.092962
    11  H    0.089834
    12  H    0.084951
 Sum of Mulliken charges =  -0.00000

 Dipole moment (field-independent basis, Debye):
    X=             -0.0178    Y=             -0.1015    Z=              0.0805  Tot=              0.1307
 Quadrupole moment (field-independent basis, Debye-Ang):
   XX=            -30.5131   YY=            -32.6072   ZZ=            -38.9706
   XY=             -0.1975   XZ=             -0.5041   YZ=              0.0568

 Normal termination of Gaussian 16 at Fri Nov 10 21:47:33 2023.
