 Gaussian 16, Revision B.01,
 Gaussian 16:  EM64L-G16RevB.01 20-Dec-2017

 ---------------------------------
 # TD=(NStates=1) B3LYP/6-31G(d,p)
 ---------------------------------

 -------
 EMISPCT
 -------
 Symbolic Z-matrix:
 Charge =  0 Multiplicity = 1

                         Standard orientation:
 ---------------------------------------------------------------------
 Center     Atomic      Atomic             Coordinates (Angstroms)
 Number     Number       Type             X           Y           Z
 ---------------------------------------------------------------------
      1          6           0       -0.573964   -1.232786   -0.078652
      2          6           0       -1.441254   -0.191376    0.060552
      3          6           0       -0.849534    1.077901   -0.007909
      4          6           0        0.534900    1.326861   -0.017901
      5          6           0        1.453767    0.168620    0.039535
      6          6           0        0.890287   -1.139697    0.009499
      7          1           0       -1.098091   -2.133222   -0.125091
      8          1           0        1.538600   -2.131865    0.052792
      9          1           0        2.459857    0.362849    0.054553
     10          1           0        0.928676    2.148628   -0.126359
     11          1           0       -1.395925    2.026526   -0.067384
     12          1           0       -2.518328   -0.330048    0.180746
 ---------------------------------------------------------------------

 SCF Done:  E(RB3LYP) =  -232.199266462     A.U. after   13 cycles

 Excitation energies and oscillator strengths:

 Excited State   1:      Singlet-A      5.2358 eV  236.80 nm  f=0.0014  <S**2>=0.000
      20 -> 22        -0.31279
      20 -> 23         0.34479
      21 -> 22         0.40560
      21 -> 23         0.34413
 This state for optimization and/or second-order correction.
 Total Energy, E(TD-HF/TD-DFT) =  -232.006853495
 Copying the excited state density for this state as the 1-particle RhoCI density.

 The electronic state is 1-A.
 Alpha  occ. eigenvalues --  -10.20943 -10.19303 -10.18961 -10.18909 -10.18755
 Alpha  occ. eigenvalues --  -10.17741  -0.83724  -0.74616  -0.72936  -0.60692
 Alpha  occ. eigenvalues --   -0.59653  -0.51428  -0.47861  -0.43750  -0.41927
 Alpha  occ. eigenvalues --   -0.40466  -0.35789  -0.34401  -0.32759  -0.24636
 Alpha  occ. eigenvalues --   -0.23828
 Alpha virt. eigenvalues --   -0.00483  -0.00284   0.09369   0.13391   0.14433
 Alpha virt. eigenvalues --    0.15737   0.16681   0.18584   0.20739   0.27628
 Alpha virt. eigenvalues --    0.29110   0.30421   0.31995   0.45596   0.50083

 Mulliken charges:
               1
     1  C   -0.091228
     2  C   -0.070749
     3  C   -0.097439
     4  C   -0.034878
     5  C   -0.097719
     6  C   -0.090024
     7  H    0.079300
     8  H    0.089076
     9  H    0.085197
    10  H    0.056158
    11  H    0.075804
    12  H    0.096501
 Sum of Mulliken charges =  -0.00000

 Dipole moment (field-independent basis, Debye):
    X=             -0.0268    Y=              0.0645    Z=             -0.0195  Tot=              0.0726
 Quadrupole moment (field-independent basis, Debye-Ang):
   XX=            -30.9224   YY=            -31.6926   ZZ=            -38.6069
   XY=              0.6118   XZ=             -0.1426   YZ=             -0.2704

 Normal termination of Gaussian 16 at Fri Nov 10 20:15:44 2023.
