 Gaussian 16, Revision B.01,
 Gaussian 16:  EM64L-G16RevB.01 20-Dec-2017

 ---------------------------------
 # TD=(NStates=1) B3LYP/6-31G(d,p)
 ---------------------------------

 -------
 EMISPCT
 -------
 Symbolic Z-matrix:
 Charge =  0 Multiplicity = 1

                         Standard orientation:
 ---------------------------------------------------------------------
 Center     Atomic      Atomic             Coordinates (Angstroms)
 Number     Number       Type             X           Y           Z
 ---------------------------------------------------------------------
      1          6           0       -0.673666    1.232748   -0.076899
      2          6           0       -1.399675    0.059035   -0.060889
      3          6           0       -0.779220   -1.235689    0.085694
      4          6           0        0.659501   -1.240358    0.006409
      5          6           0        1.441820   -0.034918   -0.083090
      6          6           0        0.742096    1.188065    0.157581
      7          1           0       -1.066970    2.247284   -0.033769
      8          1           0        1.303917    2.143239    0.223162
      9          1           0        2.554682   -0.157344   -0.191832
     10          1           0        1.475269   -2.214501   -0.258626
     11          1           0       -1.678087   -2.042931    0.395423
     12          1           0       -2.533950    0.210963   -0.307196
 ---------------------------------------------------------------------

 SCF Done:  E(RB3LYP) =  -232.181139323     A.U. after   13 cycles

 Excitation energies and oscillator strengths:

 Excited State   1:      Singlet-A      5.0344 eV  246.27 nm  f=0.0029  <S**2>=0.000
      20 -> 22         0.56141
      21 -> 23        -0.42573
 This state for optimization and/or second-order correction.
 Total Energy, E(TD-HF/TD-DFT) =  -231.996128685
 Copying the excited state density for this state as the 1-particle RhoCI density.

 The electronic state is 1-A.
 Alpha  occ. eigenvalues --  -10.22250 -10.22195 -10.20377 -10.20337 -10.19937
 Alpha  occ. eigenvalues --  -10.19280  -0.83674  -0.73474  -0.72794  -0.59334
 Alpha  occ. eigenvalues --   -0.58074  -0.50093  -0.44930  -0.42982  -0.41090
 Alpha  occ. eigenvalues --   -0.39468  -0.36183  -0.33219  -0.31870  -0.24669
 Alpha  occ. eigenvalues --   -0.24116
 Alpha virt. eigenvalues --   -0.02181  -0.00207   0.05439   0.09672   0.11873
 Alpha virt. eigenvalues --    0.12620   0.14329   0.16829   0.18169   0.26895
 Alpha virt. eigenvalues --    0.27980   0.30471   0.31948   0.45468   0.46638

 Mulliken charges:
               1
     1  C   -0.073289
     2  C   -0.091356
     3  C   -0.095359
     4  C   -0.098194
     5  C   -0.077978
     6  C   -0.097213
     7  H    0.093601
     8  H    0.084456
     9  H    0.098558
    10  H    0.069312
    11  H    0.099826
    12  H    0.087635
 Sum of Mulliken charges =  -0.00000

 Dipole moment (field-independent basis, Debye):
    X=             -0.0066    Y=              0.3711    Z=             -0.0595  Tot=              0.3759
 Quadrupole moment (field-independent basis, Debye-Ang):
   XX=            -31.0167   YY=            -32.9404   ZZ=            -39.1186
   XY=              0.0318   XZ=             -0.4442   YZ=              0.0029

 Normal termination of Gaussian 16 at Fri Nov 10 22:31:31 2023.
