 Gaussian 16, Revision B.01,
 Gaussian 16:  EM64L-G16RevB.01 20-Dec-2017

 ---------------------------------
 # TD=(NStates=1) B3LYP/6-31G(d,p)
 ---------------------------------

 -------
 EMISPCT
 -------
 Symbolic Z-matrix:
 Charge =  0 Multiplicity = 1

                         Standard orientation:
 ---------------------------------------------------------------------
 Center     Atomic      Atomic             Coordinates (Angstroms)
 Number     Number       Type             X           Y           Z
 ---------------------------------------------------------------------
      1          6           0        0.878631   -1.145438    0.012868
      2          6           0       -0.593870   -1.311680   -0.158175
      3          6           0       -1.488480   -0.155793    0.004824
      4          6           0       -0.826765    1.131129    0.027032
      5          6           0        0.544543    1.232382   -0.047262
      6          6           0        1.472402    0.168451    0.013491
      7          1           0        1.498530   -1.918253    0.351739
      8          1           0        2.642565    0.338070    0.230826
      9          1           0        1.070134    2.338670   -0.233560
     10          1           0       -1.524325    2.227633    0.099722
     11          1           0       -2.592658   -0.260128    0.451929
     12          1           0       -1.013010   -2.240301   -0.017316
 ---------------------------------------------------------------------

 SCF Done:  E(RB3LYP) =  -232.172268901     A.U. after   14 cycles

 Excitation energies and oscillator strengths:

 Excited State   1:      Singlet-A      4.8611 eV  255.05 nm  f=0.0034  <S**2>=0.000
      20 -> 23        -0.41628
      21 -> 22         0.55391
 This state for optimization and/or second-order correction.
 Total Energy, E(TD-HF/TD-DFT) =  -231.993625849
 Copying the excited state density for this state as the 1-particle RhoCI density.

 The electronic state is 1-A.
 Alpha  occ. eigenvalues --  -10.21848 -10.21448 -10.20984 -10.20626 -10.20624
 Alpha  occ. eigenvalues --  -10.20421  -0.83146  -0.73092  -0.72802  -0.59107
 Alpha  occ. eigenvalues --   -0.58649  -0.49623  -0.44731  -0.43085  -0.41015
 Alpha  occ. eigenvalues --   -0.39844  -0.35822  -0.34021  -0.31533  -0.24400
 Alpha  occ. eigenvalues --   -0.24131
 Alpha virt. eigenvalues --   -0.02289  -0.01173   0.05466   0.09757   0.11447
 Alpha virt. eigenvalues --    0.13893   0.14378   0.16649   0.17858   0.26817
 Alpha virt. eigenvalues --    0.27496   0.29233   0.31182   0.47498   0.47894

 Mulliken charges:
               1
     1  C   -0.095845
     2  C   -0.100277
     3  C   -0.106446
     4  C   -0.073254
     5  C   -0.066079
     6  C   -0.089501
     7  H    0.097285
     8  H    0.096816
     9  H    0.068543
    10  H    0.070529
    11  H    0.103430
    12  H    0.094800
 Sum of Mulliken charges =  -0.00000

 Dipole moment (field-independent basis, Debye):
    X=              0.0879    Y=             -0.2671    Z=              0.5914  Tot=              0.6548
 Quadrupole moment (field-independent basis, Debye-Ang):
   XX=            -31.3131   YY=            -32.6786   ZZ=            -39.0910
   XY=              0.1422   XZ=             -0.2957   YZ=             -0.8426

 Normal termination of Gaussian 16 at Fri Nov 10 19:41:11 2023.
