 Gaussian 16, Revision B.01,
 Gaussian 16:  EM64L-G16RevB.01 20-Dec-2017

 ---------------------------------
 # TD=(NStates=1) B3LYP/6-31G(d,p)
 ---------------------------------

 -------
 EMISPCT
 -------
 Symbolic Z-matrix:
 Charge =  0 Multiplicity = 1

                         Standard orientation:
 ---------------------------------------------------------------------
 Center     Atomic      Atomic             Coordinates (Angstroms)
 Number     Number       Type             X           Y           Z
 ---------------------------------------------------------------------
      1          6           0       -1.005256   -1.015220   -0.052665
      2          6           0       -1.448967    0.360770   -0.048655
      3          6           0       -0.388495    1.361197   -0.063857
      4          6           0        1.054735    0.966288    0.066388
      5          6           0        1.450645   -0.360961    0.075543
      6          6           0        0.332144   -1.344667   -0.013856
      7          1           0       -1.784575   -1.907110    0.156405
      8          1           0        0.749862   -2.389618   -0.113675
      9          1           0        2.458427   -0.471809   -0.099949
     10          1           0        1.834556    1.718145   -0.117800
     11          1           0       -0.756820    2.513762   -0.076498
     12          1           0       -2.470291    0.732183    0.474128
 ---------------------------------------------------------------------

 SCF Done:  E(RB3LYP) =  -232.185698103     A.U. after   13 cycles

 Excitation energies and oscillator strengths:

 Excited State   1:      Singlet-A      4.8570 eV  255.27 nm  f=0.0076  <S**2>=0.000
      20 -> 22         0.40340
      20 -> 23         0.21358
      21 -> 22        -0.38307
      21 -> 23         0.37984
 This state for optimization and/or second-order correction.
 Total Energy, E(TD-HF/TD-DFT) =  -232.007207201
 Copying the excited state density for this state as the 1-particle RhoCI density.

 The electronic state is 1-A.
 Alpha  occ. eigenvalues --  -10.21775 -10.21438 -10.20969 -10.20501 -10.20171
 Alpha  occ. eigenvalues --  -10.19630  -0.82971  -0.74183  -0.71913  -0.59194
 Alpha  occ. eigenvalues --   -0.58309  -0.49875  -0.45686  -0.43053  -0.41806
 Alpha  occ. eigenvalues --   -0.38959  -0.35551  -0.33666  -0.32247  -0.25040
 Alpha  occ. eigenvalues --   -0.23497
 Alpha virt. eigenvalues --   -0.02677  -0.00767   0.07000   0.11180   0.12277
 Alpha virt. eigenvalues --    0.13262   0.15151   0.15706   0.18710   0.25858
 Alpha virt. eigenvalues --    0.27964   0.28068   0.31449   0.46488   0.47159

 Mulliken charges:
               1
     1  C   -0.086180
     2  C   -0.104552
     3  C   -0.098846
     4  C   -0.088602
     5  C   -0.077249
     6  C   -0.088666
     7  H    0.086091
     8  H    0.086793
     9  H    0.099271
    10  H    0.088007
    11  H    0.082665
    12  H    0.101269
 Sum of Mulliken charges =  -0.00000

 Dipole moment (field-independent basis, Debye):
    X=              0.3263    Y=              0.0393    Z=              0.1410  Tot=              0.3577
 Quadrupole moment (field-independent basis, Debye-Ang):
   XX=            -31.2849   YY=            -32.6026   ZZ=            -39.0709
   XY=             -0.2317   XZ=             -1.6879   YZ=              0.0129

 Normal termination of Gaussian 16 at Fri Nov 10 21:03:27 2023.
