 Gaussian 16, Revision B.01,
 Gaussian 16:  EM64L-G16RevB.01 20-Dec-2017

 ---------------------------------
 # TD=(NStates=1) B3LYP/6-31G(d,p)
 ---------------------------------

 -------
 EMISPCT
 -------
 Symbolic Z-matrix:
 Charge =  0 Multiplicity = 1

                         Standard orientation:
 ---------------------------------------------------------------------
 Center     Atomic      Atomic             Coordinates (Angstroms)
 Number     Number       Type             X           Y           Z
 ---------------------------------------------------------------------
      1          6           0        0.202551    1.449729   -0.003208
      2          6           0       -1.131065    0.881584    0.029757
      3          6           0       -1.329333   -0.538348   -0.045627
      4          6           0       -0.181593   -1.401696   -0.097544
      5          6           0        1.123660   -0.888953    0.135821
      6          6           0        1.309403    0.511662   -0.023323
      7          1           0        0.410749    2.454256   -0.208213
      8          1           0        2.350643    0.918227   -0.377990
      9          1           0        1.989020   -1.525105    0.392752
     10          1           0       -0.387341   -2.384651   -0.215665
     11          1           0       -2.280103   -1.035067    0.001664
     12          1           0       -2.044702    1.488475    0.432194
 ---------------------------------------------------------------------

 SCF Done:  E(RB3LYP) =  -232.213074324     A.U. after   13 cycles

 Excitation energies and oscillator strengths:

 Excited State   1:      Singlet-A      4.8590 eV  255.16 nm  f=0.0022  <S**2>=0.000
      20 -> 22        -0.15058
      20 -> 23         0.41963
      21 -> 22         0.53372
      21 -> 23         0.12645
 This state for optimization and/or second-order correction.
 Total Energy, E(TD-HF/TD-DFT) =  -232.034509194
 Copying the excited state density for this state as the 1-particle RhoCI density.

 The electronic state is 1-A.
 Alpha  occ. eigenvalues --  -10.20577 -10.20441 -10.20045 -10.19637 -10.19550
 Alpha  occ. eigenvalues --  -10.19066  -0.83049  -0.73367  -0.72922  -0.60152
 Alpha  occ. eigenvalues --   -0.58541  -0.50721  -0.46808  -0.43126  -0.41276
 Alpha  occ. eigenvalues --   -0.40888  -0.36234  -0.34921  -0.31459  -0.23987
 Alpha  occ. eigenvalues --   -0.23666
 Alpha virt. eigenvalues --   -0.01695  -0.00871   0.09431   0.10965   0.14115
 Alpha virt. eigenvalues --    0.15140   0.15987   0.17669   0.19163   0.27549
 Alpha virt. eigenvalues --    0.28346   0.30499   0.30793   0.47103   0.48454

 Mulliken charges:
               1
     1  C   -0.088244
     2  C   -0.103008
     3  C   -0.086658
     4  C   -0.075660
     5  C   -0.086226
     6  C   -0.101520
     7  H    0.096136
     8  H    0.087293
     9  H    0.096142
    10  H    0.084119
    11  H    0.093923
    12  H    0.083704
 Sum of Mulliken charges =  -0.00000

 Dipole moment (field-independent basis, Debye):
    X=              0.0655    Y=             -0.3092    Z=              0.0020  Tot=              0.3160
 Quadrupole moment (field-independent basis, Debye-Ang):
   XX=            -31.7978   YY=            -31.6113   ZZ=            -38.5907
   XY=              0.5377   XZ=             -0.7553   YZ=             -0.3167

 Normal termination of Gaussian 16 at Fri Nov 10 22:07:08 2023.
