 Gaussian 16, Revision B.01,
 Gaussian 16:  EM64L-G16RevB.01 20-Dec-2017

 ---------------------------------
 # TD=(NStates=1) B3LYP/6-31G(d,p)
 ---------------------------------

 -------
 EMISPCT
 -------
 Symbolic Z-matrix:
 Charge =  0 Multiplicity = 1

                         Standard orientation:
 ---------------------------------------------------------------------
 Center     Atomic      Atomic             Coordinates (Angstroms)
 Number     Number       Type             X           Y           Z
 ---------------------------------------------------------------------
      1          6           0        1.046057    0.971508   -0.069331
      2          6           0       -0.364379    1.345652   -0.044037
      3          6           0       -1.379542    0.417594    0.056677
      4          6           0       -1.020503   -0.971388    0.003814
      5          6           0        0.322882   -1.347214   -0.096925
      6          6           0        1.414727   -0.396187    0.077722
      7          1           0        1.819987    1.783529   -0.121515
      8          1           0        2.327807   -0.931612    0.355241
      9          1           0        0.526797   -2.291380   -0.044304
     10          1           0       -1.867101   -1.787080    0.005977
     11          1           0       -2.389230    0.658991    0.045996
     12          1           0       -0.533712    2.447763    0.191081
 ---------------------------------------------------------------------

 SCF Done:  E(RB3LYP) =  -232.212012073     A.U. after   13 cycles

 Excitation energies and oscillator strengths:

 Excited State   1:      Singlet-A      5.1110 eV  242.58 nm  f=0.0004  <S**2>=0.000
      20 -> 22        -0.29316
      20 -> 23        -0.39477
      21 -> 22         0.42675
      21 -> 23        -0.27515
 This state for optimization and/or second-order correction.
 Total Energy, E(TD-HF/TD-DFT) =  -232.024187784
 Copying the excited state density for this state as the 1-particle RhoCI density.

 The electronic state is 1-A.
 Alpha  occ. eigenvalues --  -10.20515 -10.20184 -10.19934 -10.19915 -10.18762
 Alpha  occ. eigenvalues --  -10.17923  -0.83546  -0.74058  -0.72974  -0.59941
 Alpha  occ. eigenvalues --   -0.59291  -0.51319  -0.46614  -0.42971  -0.41999
 Alpha  occ. eigenvalues --   -0.40554  -0.35394  -0.34516  -0.32931  -0.24247
 Alpha  occ. eigenvalues --   -0.24028
 Alpha virt. eigenvalues --   -0.00940  -0.00565   0.08594   0.12771   0.13867
 Alpha virt. eigenvalues --    0.14327   0.16746   0.17926   0.20324   0.27337
 Alpha virt. eigenvalues --    0.28450   0.30461   0.31883   0.47173   0.49687

 Mulliken charges:
               1
     1  C   -0.109183
     2  C   -0.090087
     3  C   -0.073820
     4  C   -0.090047
     5  C   -0.074196
     6  C   -0.083026
     7  H    0.089997
     8  H    0.100637
     9  H    0.072601
    10  H    0.080106
    11  H    0.089624
    12  H    0.087395
 Sum of Mulliken charges =  -0.00000

 Dipole moment (field-independent basis, Debye):
    X=              0.0446    Y=             -0.1516    Z=              0.2943  Tot=              0.3341
 Quadrupole moment (field-independent basis, Debye-Ang):
   XX=            -31.5256   YY=            -31.5848   ZZ=            -38.7100
   XY=             -0.2368   XZ=              0.3411   YZ=             -0.0005

 Normal termination of Gaussian 16 at Fri Nov 10 22:42:25 2023.
