 Gaussian 16, Revision B.01,
 Gaussian 16:  EM64L-G16RevB.01 20-Dec-2017

 ---------------------------------
 # TD=(NStates=1) B3LYP/6-31G(d,p)
 ---------------------------------

 -------
 EMISPCT
 -------
 Symbolic Z-matrix:
 Charge =  0 Multiplicity = 1

                         Standard orientation:
 ---------------------------------------------------------------------
 Center     Atomic      Atomic             Coordinates (Angstroms)
 Number     Number       Type             X           Y           Z
 ---------------------------------------------------------------------
      1          6           0       -1.096901    0.884879   -0.023248
      2          6           0        0.210910    1.364612   -0.001078
      3          6           0        1.320684    0.497850    0.001585
      4          6           0        1.121902   -0.860249   -0.035671
      5          6           0       -0.240509   -1.380047   -0.023484
      6          6           0       -1.324671   -0.494909    0.040478
      7          1           0       -1.983640    1.617574   -0.125332
      8          1           0       -2.326216   -1.045572    0.028228
      9          1           0       -0.339073   -2.368510    0.125902
     10          1           0        1.953677   -1.464498    0.005620
     11          1           0        2.340259    0.804668    0.064892
     12          1           0        0.406508    2.383513    0.149198
 ---------------------------------------------------------------------

 SCF Done:  E(RB3LYP) =  -232.233721037     A.U. after   12 cycles

 Excitation energies and oscillator strengths:

 Excited State   1:      Singlet-A      5.4116 eV  229.11 nm  f=0.0000  <S**2>=0.000
      20 -> 22         0.49904
      21 -> 23        -0.49878
 This state for optimization and/or second-order correction.
 Total Energy, E(TD-HF/TD-DFT) =  -232.034849198
 Copying the excited state density for this state as the 1-particle RhoCI density.

 The electronic state is 1-A.
 Alpha  occ. eigenvalues --  -10.19807 -10.19560 -10.18613 -10.18363 -10.18346
 Alpha  occ. eigenvalues --  -10.18234  -0.84344  -0.74371  -0.73682  -0.60628
 Alpha  occ. eigenvalues --   -0.59206  -0.51804  -0.46607  -0.43709  -0.41777
 Alpha  occ. eigenvalues --   -0.41356  -0.36102  -0.33870  -0.33452  -0.25030
 Alpha  occ. eigenvalues --   -0.24087
 Alpha virt. eigenvalues --   -0.00571   0.00434   0.09140   0.13988   0.14611
 Alpha virt. eigenvalues --    0.15611   0.17369   0.18487   0.20484   0.29090
 Alpha virt. eigenvalues --    0.29976   0.31232   0.31584   0.46914   0.52255

 Mulliken charges:
               1
     1  C   -0.092238
     2  C   -0.085741
     3  C   -0.075048
     4  C   -0.081592
     5  C   -0.079723
     6  C   -0.088521
     7  H    0.086852
     8  H    0.086380
     9  H    0.081152
    10  H    0.079572
    11  H    0.083773
    12  H    0.085133
 Sum of Mulliken charges =  -0.00000

 Dipole moment (field-independent basis, Debye):
    X=              0.1645    Y=             -0.0831    Z=              0.1603  Tot=              0.2443
 Quadrupole moment (field-independent basis, Debye-Ang):
   XX=            -31.3405   YY=            -31.6196   ZZ=            -38.4937
   XY=              0.0205   XZ=              0.3195   YZ=             -0.1107

 Normal termination of Gaussian 16 at Fri Nov 10 19:56:08 2023.
