 Gaussian 16, Revision B.01,
 Gaussian 16:  EM64L-G16RevB.01 20-Dec-2017

 ---------------------------------
 # TD=(NStates=1) B3LYP/6-31G(d,p)
 ---------------------------------

 -------
 EMISPCT
 -------
 Symbolic Z-matrix:
 Charge =  0 Multiplicity = 1

                         Standard orientation:
 ---------------------------------------------------------------------
 Center     Atomic      Atomic             Coordinates (Angstroms)
 Number     Number       Type             X           Y           Z
 ---------------------------------------------------------------------
      1          6           0        1.379508    0.354631   -0.033330
      2          6           0        0.382975    1.397391    0.030374
      3          6           0       -1.006243    0.946857   -0.013848
      4          6           0       -1.398629   -0.325258    0.079996
      5          6           0       -0.355654   -1.381999   -0.016782
      6          6           0        0.982830   -1.003906   -0.028236
      7          1           0        2.509215    0.584928    0.099086
      8          1           0        1.729367   -1.741336    0.250409
      9          1           0       -0.562574   -2.481863   -0.194786
     10          1           0       -2.429266   -0.597355   -0.097320
     11          1           0       -1.833464    1.757393   -0.003836
     12          1           0        0.677995    2.551943   -0.162591
 ---------------------------------------------------------------------

 SCF Done:  E(RB3LYP) =  -232.216038372     A.U. after   13 cycles

 Excitation energies and oscillator strengths:

 Excited State   1:      Singlet-A      5.1952 eV  238.65 nm  f=0.0017  <S**2>=0.000
      20 -> 22         0.51221
      21 -> 22        -0.12404
      21 -> 23        -0.46631
 This state for optimization and/or second-order correction.
 Total Energy, E(TD-HF/TD-DFT) =  -232.025119925
 Copying the excited state density for this state as the 1-particle RhoCI density.

 The electronic state is 1-A.
 Alpha  occ. eigenvalues --  -10.21330 -10.20505 -10.20299 -10.19985 -10.19409
 Alpha  occ. eigenvalues --  -10.18977  -0.83803  -0.74483  -0.72385  -0.59797
 Alpha  occ. eigenvalues --   -0.58029  -0.50403  -0.45045  -0.43325  -0.41653
 Alpha  occ. eigenvalues --   -0.40220  -0.36063  -0.33969  -0.32325  -0.25384
 Alpha  occ. eigenvalues --   -0.23778
 Alpha virt. eigenvalues --   -0.01979   0.00212   0.07523   0.11874   0.12942
 Alpha virt. eigenvalues --    0.14437   0.15352   0.17445   0.18092   0.26860
 Alpha virt. eigenvalues --    0.28590   0.29620   0.32348   0.46703   0.48431

 Mulliken charges:
               1
     1  C   -0.094929
     2  C   -0.095637
     3  C   -0.084156
     4  C   -0.077960
     5  C   -0.107014
     6  C   -0.075079
     7  H    0.086734
     8  H    0.091449
     9  H    0.091831
    10  H    0.094044
    11  H    0.080769
    12  H    0.089949
 Sum of Mulliken charges =  -0.00000

 Dipole moment (field-independent basis, Debye):
    X=             -0.0262    Y=             -0.0948    Z=             -0.0722  Tot=              0.1220
 Quadrupole moment (field-independent basis, Debye-Ang):
   XX=            -31.7401   YY=            -31.8222   ZZ=            -38.9464
   XY=             -0.0036   XZ=              0.7771   YZ=             -0.2256

 Normal termination of Gaussian 16 at Fri Nov 10 22:09:35 2023.
