 Gaussian 16, Revision B.01,
 Gaussian 16:  EM64L-G16RevB.01 20-Dec-2017

 ---------------------------------
 # TD=(NStates=1) B3LYP/6-31G(d,p)
 ---------------------------------

 -------
 EMISPCT
 -------
 Symbolic Z-matrix:
 Charge =  0 Multiplicity = 1

                         Standard orientation:
 ---------------------------------------------------------------------
 Center     Atomic      Atomic             Coordinates (Angstroms)
 Number     Number       Type             X           Y           Z
 ---------------------------------------------------------------------
      1          6           0        0.079373   -1.408117   -0.055181
      2          6           0        1.286545   -0.683731    0.031807
      3          6           0        1.252762    0.754332   -0.020012
      4          6           0       -0.013507    1.436521   -0.052644
      5          6           0       -1.370423    0.658260    0.011595
      6          6           0       -1.222063   -0.804527    0.044291
      7          1           0        0.018770   -2.392179   -0.133941
      8          1           0       -2.365729   -1.320020   -0.022541
      9          1           0       -2.275898    1.432735    0.228065
     10          1           0       -0.001824    2.456312   -0.191875
     11          1           0        2.218205    1.364046    0.238459
     12          1           0        2.330350   -1.257319    0.122705
 ---------------------------------------------------------------------

 SCF Done:  E(RB3LYP) =  -232.170087964     A.U. after   14 cycles

 Excitation energies and oscillator strengths:

 Excited State   1:      Singlet-A      4.8950 eV  253.29 nm  f=0.0004  <S**2>=0.000
      20 -> 22         0.50729
      21 -> 23         0.47641
 This state for optimization and/or second-order correction.
 Total Energy, E(TD-HF/TD-DFT) =  -231.990199899
 Copying the excited state density for this state as the 1-particle RhoCI density.

 The electronic state is 1-A.
 Alpha  occ. eigenvalues --  -10.22474 -10.22225 -10.21138 -10.20787 -10.20243
 Alpha  occ. eigenvalues --  -10.19352  -0.82267  -0.73188  -0.71885  -0.60087
 Alpha  occ. eigenvalues --   -0.57711  -0.49592  -0.46488  -0.42682  -0.40535
 Alpha  occ. eigenvalues --   -0.39926  -0.35372  -0.33431  -0.32094  -0.24474
 Alpha  occ. eigenvalues --   -0.23607
 Alpha virt. eigenvalues --   -0.02116  -0.00937   0.06850   0.10499   0.10907
 Alpha virt. eigenvalues --    0.12665   0.14908   0.16736   0.18118   0.24805
 Alpha virt. eigenvalues --    0.27173   0.29307   0.29722   0.45057   0.49086

 Mulliken charges:
               1
     1  C   -0.067341
     2  C   -0.086175
     3  C   -0.093496
     4  C   -0.095596
     5  C   -0.100293
     6  C   -0.106135
     7  H    0.089063
     8  H    0.086639
     9  H    0.101888
    10  H    0.091054
    11  H    0.090416
    12  H    0.089976
 Sum of Mulliken charges =  -0.00000

 Dipole moment (field-independent basis, Debye):
    X=              0.0238    Y=              0.1124    Z=              0.1346  Tot=              0.1769
 Quadrupole moment (field-independent basis, Debye-Ang):
   XX=            -31.4321   YY=            -31.4805   ZZ=            -39.4530
   XY=             -0.3932   XZ=              0.2829   YZ=              0.3702

 Normal termination of Gaussian 16 at Fri Nov 10 21:16:05 2023.
