 Gaussian 16, Revision B.01,
 Gaussian 16:  EM64L-G16RevB.01 20-Dec-2017

 ---------------------------------
 # TD=(NStates=1) B3LYP/6-31G(d,p)
 ---------------------------------

 -------
 EMISPCT
 -------
 Symbolic Z-matrix:
 Charge =  0 Multiplicity = 1

                         Standard orientation:
 ---------------------------------------------------------------------
 Center     Atomic      Atomic             Coordinates (Angstroms)
 Number     Number       Type             X           Y           Z
 ---------------------------------------------------------------------
      1          6           0       -1.367602    0.542039    0.028167
      2          6           0       -1.053666   -0.888278   -0.004484
      3          6           0        0.210951   -1.379130   -0.071634
      4          6           0        1.327845   -0.540136    0.045056
      5          6           0        1.099557    0.880076   -0.084236
      6          6           0       -0.197775    1.353796    0.022204
      7          1           0       -2.489477    0.802139   -0.038935
      8          1           0       -0.253031    2.613184    0.112445
      9          1           0        1.989352    1.483908   -0.096345
     10          1           0        2.437449   -0.769485    0.314618
     11          1           0        0.304123   -2.502814    0.032663
     12          1           0       -2.104278   -1.437125    0.065127
 ---------------------------------------------------------------------

 SCF Done:  E(RB3LYP) =  -232.199027559     A.U. after   13 cycles

 Excitation energies and oscillator strengths:

 Excited State   1:      Singlet-A      5.2775 eV  234.93 nm  f=0.0011  <S**2>=0.000
      20 -> 22         0.52645
      21 -> 23         0.46701
 This state for optimization and/or second-order correction.
 Total Energy, E(TD-HF/TD-DFT) =  -232.005084553
 Copying the excited state density for this state as the 1-particle RhoCI density.

 The electronic state is 1-A.
 Alpha  occ. eigenvalues --  -10.21080 -10.20709 -10.20661 -10.20286 -10.19714
 Alpha  occ. eigenvalues --  -10.19289  -0.84335  -0.73967  -0.73138  -0.59618
 Alpha  occ. eigenvalues --   -0.58412  -0.50278  -0.45041  -0.44418  -0.40263
 Alpha  occ. eigenvalues --   -0.39815  -0.36108  -0.35399  -0.30660  -0.25311
 Alpha  occ. eigenvalues --   -0.23860
 Alpha virt. eigenvalues --   -0.01657   0.00574   0.05818   0.11078   0.11891
 Alpha virt. eigenvalues --    0.14159   0.15294   0.16572   0.18296   0.26378
 Alpha virt. eigenvalues --    0.28036   0.30913   0.34314   0.46336   0.50049

 Mulliken charges:
               1
     1  C   -0.094845
     2  C   -0.081201
     3  C   -0.090540
     4  C   -0.096481
     5  C   -0.076166
     6  C   -0.080435
     7  H    0.103320
     8  H    0.057719
     9  H    0.092552
    10  H    0.096865
    11  H    0.086710
    12  H    0.082501
 Sum of Mulliken charges =  -0.00000

 Dipole moment (field-independent basis, Debye):
    X=              0.0793    Y=             -0.0569    Z=              0.2170  Tot=              0.2380
 Quadrupole moment (field-independent basis, Debye-Ang):
   XX=            -30.3521   YY=            -33.5215   ZZ=            -39.0632
   XY=              0.4910   XZ=              0.4630   YZ=             -0.2817

 Normal termination of Gaussian 16 at Fri Nov 10 20:36:07 2023.
