 Gaussian 16, Revision B.01,
 Gaussian 16:  EM64L-G16RevB.01 20-Dec-2017

 ---------------------------------
 # TD=(NStates=1) B3LYP/6-31G(d,p)
 ---------------------------------

 -------
 EMISPCT
 -------
 Symbolic Z-matrix:
 Charge =  0 Multiplicity = 1

                         Standard orientation:
 ---------------------------------------------------------------------
 Center     Atomic      Atomic             Coordinates (Angstroms)
 Number     Number       Type             X           Y           Z
 ---------------------------------------------------------------------
      1          6           0       -1.421343   -0.259953   -0.084152
      2          6           0       -1.013420    1.014850    0.065554
      3          6           0        0.499672    1.343052   -0.032774
      4          6           0        1.512358    0.319998   -0.033601
      5          6           0        0.941043   -1.026807   -0.065182
      6          6           0       -0.461563   -1.379742    0.019825
      7          1           0       -2.463085   -0.348048   -0.045937
      8          1           0       -0.981675   -2.383410    0.240818
      9          1           0        1.655325   -1.788378    0.207674
     10          1           0        2.624910    0.149398    0.161327
     11          1           0        0.535073    2.552162    0.105175
     12          1           0       -1.711029    1.749895    0.112920
 ---------------------------------------------------------------------

 SCF Done:  E(RB3LYP) =  -232.173408331     A.U. after   14 cycles

 Excitation energies and oscillator strengths:

 Excited State   1:      Singlet-A      4.9746 eV  249.23 nm  f=0.0027  <S**2>=0.000
      20 -> 22         0.46084
      21 -> 22         0.17826
      21 -> 23         0.49562
 This state for optimization and/or second-order correction.
 Total Energy, E(TD-HF/TD-DFT) =  -231.990595390
 Copying the excited state density for this state as the 1-particle RhoCI density.

 The electronic state is 1-A.
 Alpha  occ. eigenvalues --  -10.22473 -10.21723 -10.21073 -10.20060 -10.18978
 Alpha  occ. eigenvalues --  -10.18661  -0.82570  -0.74743  -0.71300  -0.60216
 Alpha  occ. eigenvalues --   -0.58467  -0.50277  -0.46402  -0.44022  -0.40962
 Alpha  occ. eigenvalues --   -0.39760  -0.34528  -0.33769  -0.32139  -0.25206
 Alpha  occ. eigenvalues --   -0.23106
 Alpha virt. eigenvalues --   -0.02164  -0.00450   0.07620   0.10940   0.11618
 Alpha virt. eigenvalues --    0.12826   0.15116   0.18528   0.20025   0.24457
 Alpha virt. eigenvalues --    0.26279   0.30491   0.31483   0.42966   0.45907

 Mulliken charges:
               1
     1  C   -0.074834
     2  C   -0.069743
     3  C   -0.113234
     4  C   -0.083864
     5  C   -0.112708
     6  C   -0.090325
     7  H    0.081239
     8  H    0.098768
     9  H    0.085605
    10  H    0.114300
    11  H    0.077834
    12  H    0.086964
 Sum of Mulliken charges =  -0.00000

 Dipole moment (field-independent basis, Debye):
    X=             -0.2711    Y=             -0.1074    Z=              0.4924  Tot=              0.5723
 Quadrupole moment (field-independent basis, Debye-Ang):
   XX=            -30.6145   YY=            -32.5970   ZZ=            -39.1425
   XY=             -1.0239   XZ=              0.4007   YZ=             -0.4133

 Normal termination of Gaussian 16 at Fri Nov 10 21:13:25 2023.
