 Gaussian 16, Revision B.01,
 Gaussian 16:  EM64L-G16RevB.01 20-Dec-2017

 ---------------------------------
 # TD=(NStates=1) B3LYP/6-31G(d,p)
 ---------------------------------

 -------
 EMISPCT
 -------
 Symbolic Z-matrix:
 Charge =  0 Multiplicity = 1

                         Standard orientation:
 ---------------------------------------------------------------------
 Center     Atomic      Atomic             Coordinates (Angstroms)
 Number     Number       Type             X           Y           Z
 ---------------------------------------------------------------------
      1          6           0        0.965446    1.069049   -0.041114
      2          6           0       -0.378053    1.291119   -0.038134
      3          6           0       -1.414869    0.269169    0.007296
      4          6           0       -1.009495   -0.995575    0.000895
      5          6           0        0.420988   -1.327217   -0.121854
      6          6           0        1.407277   -0.339299    0.094499
      7          1           0        1.611382    1.896693    0.021018
      8          1           0        2.460025   -0.613637    0.287602
      9          1           0        0.875276   -2.327901   -0.046146
     10          1           0       -1.734930   -1.647075    0.069395
     11          1           0       -2.406546    0.594819    0.397305
     12          1           0       -0.752969    2.293620   -0.138700
 ---------------------------------------------------------------------

 SCF Done:  E(RB3LYP) =  -232.212627801     A.U. after   14 cycles

 Excitation energies and oscillator strengths:

 Excited State   1:      Singlet-A      5.2894 eV  234.40 nm  f=0.0010  <S**2>=0.000
      20 -> 22         0.46729
      20 -> 23         0.14929
      21 -> 22        -0.20484
      21 -> 23         0.46587
 This state for optimization and/or second-order correction.
 Total Energy, E(TD-HF/TD-DFT) =  -232.018244675
 Copying the excited state density for this state as the 1-particle RhoCI density.

 The electronic state is 1-A.
 Alpha  occ. eigenvalues --  -10.20113 -10.19819 -10.18907 -10.18630 -10.18458
 Alpha  occ. eigenvalues --  -10.18185  -0.83966  -0.74752  -0.73082  -0.60379
 Alpha  occ. eigenvalues --   -0.58777  -0.51737  -0.46786  -0.43538  -0.42660
 Alpha  occ. eigenvalues --   -0.40005  -0.36319  -0.33871  -0.32632  -0.24956
 Alpha  occ. eigenvalues --   -0.23925
 Alpha virt. eigenvalues --   -0.00875   0.00045   0.09473   0.12601   0.14915
 Alpha virt. eigenvalues --    0.15504   0.17432   0.18120   0.19992   0.27203
 Alpha virt. eigenvalues --    0.28938   0.29855   0.33372   0.46002   0.47222

 Mulliken charges:
               1
     1  C   -0.074006
     2  C   -0.090088
     3  C   -0.090976
     4  C   -0.058944
     5  C   -0.098700
     6  C   -0.102291
     7  H    0.087399
     8  H    0.094749
     9  H    0.085800
    10  H    0.077323
    11  H    0.092600
    12  H    0.077134
 Sum of Mulliken charges =  -0.00000

 Dipole moment (field-independent basis, Debye):
    X=              0.0394    Y=              0.0354    Z=              0.3948  Tot=              0.3983
 Quadrupole moment (field-independent basis, Debye-Ang):
   XX=            -31.0071   YY=            -32.1271   ZZ=            -38.4000
   XY=             -0.1441   XZ=             -0.1897   YZ=             -0.1601

 Normal termination of Gaussian 16 at Fri Nov 10 20:52:39 2023.
