 Gaussian 16, Revision B.01,
 Gaussian 16:  EM64L-G16RevB.01 20-Dec-2017

 ---------------------------------
 # TD=(NStates=1) B3LYP/6-31G(d,p)
 ---------------------------------

 -------
 EMISPCT
 -------
 Symbolic Z-matrix:
 Charge =  0 Multiplicity = 1

                         Standard orientation:
 ---------------------------------------------------------------------
 Center     Atomic      Atomic             Coordinates (Angstroms)
 Number     Number       Type             X           Y           Z
 ---------------------------------------------------------------------
      1          6           0        1.245275   -0.769793   -0.040163
      2          6           0       -0.066354   -1.417721   -0.020193
      3          6           0       -1.246204   -0.675715   -0.044972
      4          6           0       -1.178428    0.778229   -0.058631
      5          6           0        0.028503    1.412341    0.051244
      6          6           0        1.249830    0.625488   -0.012869
      7          1           0        2.227505   -1.206606    0.391347
      8          1           0        2.168419    1.313954   -0.245995
      9          1           0        0.069593    2.533330    0.137275
     10          1           0       -2.184115    1.094839    0.236471
     11          1           0       -2.307402   -1.016369    0.076077
     12          1           0       -0.169734   -2.436123    0.158322
 ---------------------------------------------------------------------

 SCF Done:  E(RB3LYP) =  -232.208275451     A.U. after   13 cycles

 Excitation energies and oscillator strengths:

 Excited State   1:      Singlet-A      5.1156 eV  242.36 nm  f=0.0025  <S**2>=0.000
      20 -> 22         0.37643
      20 -> 23         0.30080
      21 -> 22         0.38343
      21 -> 23        -0.34694
 This state for optimization and/or second-order correction.
 Total Energy, E(TD-HF/TD-DFT) =  -232.020280404
 Copying the excited state density for this state as the 1-particle RhoCI density.

 The electronic state is 1-A.
 Alpha  occ. eigenvalues --  -10.20629 -10.20377 -10.19757 -10.19738 -10.19596
 Alpha  occ. eigenvalues --  -10.19017  -0.83791  -0.73767  -0.73443  -0.60404
 Alpha  occ. eigenvalues --   -0.58339  -0.50726  -0.45558  -0.43806  -0.41324
 Alpha  occ. eigenvalues --   -0.40252  -0.36647  -0.33149  -0.32140  -0.24801
 Alpha  occ. eigenvalues --   -0.24260
 Alpha virt. eigenvalues --   -0.01622  -0.00608   0.08044   0.11467   0.12734
 Alpha virt. eigenvalues --    0.14877   0.16308   0.17035   0.19840   0.26315
 Alpha virt. eigenvalues --    0.28401   0.30214   0.32917   0.46442   0.48417

 Mulliken charges:
               1
     1  C   -0.106142
     2  C   -0.092133
     3  C   -0.091606
     4  C   -0.075448
     5  C   -0.087146
     6  C   -0.092178
     7  H    0.102400
     8  H    0.086915
     9  H    0.088836
    10  H    0.085719
    11  H    0.092105
    12  H    0.088677
 Sum of Mulliken charges =  -0.00000

 Dipole moment (field-independent basis, Debye):
    X=             -0.1804    Y=              0.0315    Z=              0.4866  Tot=              0.5200
 Quadrupole moment (field-independent basis, Debye-Ang):
   XX=            -31.5367   YY=            -32.4737   ZZ=            -38.6591
   XY=              0.5346   XZ=             -0.2457   YZ=             -0.6085

 Normal termination of Gaussian 16 at Fri Nov 10 22:53:14 2023.
