 Gaussian 16, Revision B.01,
 Gaussian 16:  EM64L-G16RevB.01 20-Dec-2017

 ---------------------------------
 # TD=(NStates=1) B3LYP/6-31G(d,p)
 ---------------------------------

 -------
 EMISPCT
 -------
 Symbolic Z-matrix:
 Charge =  0 Multiplicity = 1

                         Standard orientation:
 ---------------------------------------------------------------------
 Center     Atomic      Atomic             Coordinates (Angstroms)
 Number     Number       Type             X           Y           Z
 ---------------------------------------------------------------------
      1          6           0       -1.057303   -0.970748   -0.066156
      2          6           0       -1.389931    0.395691    0.003033
      3          6           0       -0.344709    1.374928   -0.020103
      4          6           0        1.047051    0.986144    0.034217
      5          6           0        1.396964   -0.461145   -0.006797
      6          6           0        0.354019   -1.358257    0.074559
      7          1           0       -1.773541   -1.661982   -0.034044
      8          1           0        0.377579   -2.408730   -0.140068
      9          1           0        2.434641   -0.680283   -0.078710
     10          1           0        1.876203    1.761834    0.067577
     11          1           0       -0.539524    2.427766   -0.277482
     12          1           0       -2.411910    0.761713    0.350215
 ---------------------------------------------------------------------

 SCF Done:  E(RB3LYP) =  -232.212793893     A.U. after   14 cycles

 Excitation energies and oscillator strengths:

 Excited State   1:      Singlet-A      4.9532 eV  250.31 nm  f=0.0001  <S**2>=0.000
      20 -> 22         0.48970
      20 -> 23        -0.10007
      21 -> 22         0.10740
      21 -> 23         0.48810
 This state for optimization and/or second-order correction.
 Total Energy, E(TD-HF/TD-DFT) =  -232.030766277
 Copying the excited state density for this state as the 1-particle RhoCI density.

 The electronic state is 1-A.
 Alpha  occ. eigenvalues --  -10.20690 -10.19942 -10.19920 -10.19870 -10.19337
 Alpha  occ. eigenvalues --  -10.18766  -0.83002  -0.73673  -0.72901  -0.59798
 Alpha  occ. eigenvalues --   -0.59312  -0.51045  -0.46718  -0.43546  -0.41729
 Alpha  occ. eigenvalues --   -0.40268  -0.35405  -0.35159  -0.31896  -0.24314
 Alpha  occ. eigenvalues --   -0.23684
 Alpha virt. eigenvalues --   -0.01497  -0.00944   0.09187   0.12232   0.14392
 Alpha virt. eigenvalues --    0.15269   0.16474   0.17307   0.19494   0.26278
 Alpha virt. eigenvalues --    0.28451   0.29366   0.32251   0.46734   0.47900

 Mulliken charges:
               1
     1  C   -0.086285
     2  C   -0.091727
     3  C   -0.093059
     4  C   -0.101581
     5  C   -0.080976
     6  C   -0.088856
     7  H    0.085945
     8  H    0.086574
     9  H    0.094983
    10  H    0.089958
    11  H    0.093038
    12  H    0.091986
 Sum of Mulliken charges =  -0.00000

 Dipole moment (field-independent basis, Debye):
    X=              0.0367    Y=              0.0241    Z=             -0.0796  Tot=              0.0909
 Quadrupole moment (field-independent basis, Debye-Ang):
   XX=            -31.3142   YY=            -31.8212   ZZ=            -38.7454
   XY=              0.6299   XZ=             -0.6140   YZ=              0.1346

 Normal termination of Gaussian 16 at Fri Nov 10 22:28:09 2023.
