 Gaussian 16, Revision B.01,
 Gaussian 16:  EM64L-G16RevB.01 20-Dec-2017

 ---------------------------------
 # TD=(NStates=1) B3LYP/6-31G(d,p)
 ---------------------------------

 -------
 EMISPCT
 -------
 Symbolic Z-matrix:
 Charge =  0 Multiplicity = 1

                         Standard orientation:
 ---------------------------------------------------------------------
 Center     Atomic      Atomic             Coordinates (Angstroms)
 Number     Number       Type             X           Y           Z
 ---------------------------------------------------------------------
      1          6           0        0.760770   -1.211864    0.028418
      2          6           0        1.440400    0.053103   -0.023335
      3          6           0        0.661147    1.223738   -0.027051
      4          6           0       -0.714226    1.208218   -0.022401
      5          6           0       -1.413560   -0.060706   -0.046478
      6          6           0       -0.719412   -1.220056    0.018232
      7          1           0        1.532844   -2.070492    0.063979
      8          1           0       -1.257321   -2.164785    0.119589
      9          1           0       -2.575453   -0.325673   -0.060778
     10          1           0       -1.287166    2.325750    0.181877
     11          1           0        0.976124    2.283570    0.280144
     12          1           0        2.520256   -0.002972   -0.149120
 ---------------------------------------------------------------------

 SCF Done:  E(RB3LYP) =  -232.199316801     A.U. after   13 cycles

 Excitation energies and oscillator strengths:

 Excited State   1:      Singlet-A      5.3123 eV  233.39 nm  f=0.0007  <S**2>=0.000
      20 -> 22         0.48599
      21 -> 22         0.14122
      21 -> 23         0.48530
 This state for optimization and/or second-order correction.
 Total Energy, E(TD-HF/TD-DFT) =  -232.004093934
 Copying the excited state density for this state as the 1-particle RhoCI density.

 The electronic state is 1-A.
 Alpha  occ. eigenvalues --  -10.21200 -10.20832 -10.20433 -10.19823 -10.19793
 Alpha  occ. eigenvalues --  -10.19619  -0.84122  -0.74543  -0.72782  -0.59104
 Alpha  occ. eigenvalues --   -0.58677  -0.50677  -0.45056  -0.42913  -0.41366
 Alpha  occ. eigenvalues --   -0.39808  -0.36070  -0.33591  -0.32267  -0.25342
 Alpha  occ. eigenvalues --   -0.24174
 Alpha virt. eigenvalues --   -0.01227  -0.00032   0.05962   0.10930   0.11668
 Alpha virt. eigenvalues --    0.13739   0.16983   0.17119   0.17321   0.27244
 Alpha virt. eigenvalues --    0.28949   0.29942   0.31965   0.45633   0.49068

 Mulliken charges:
               1
     1  C   -0.096405
     2  C   -0.095008
     3  C   -0.070891
     4  C   -0.099747
     5  C   -0.079463
     6  C   -0.087134
     7  H    0.090743
     8  H    0.092920
     9  H    0.085986
    10  H    0.076998
    11  H    0.087127
    12  H    0.094876
 Sum of Mulliken charges =  -0.00000

 Dipole moment (field-independent basis, Debye):
    X=              0.0771    Y=             -0.2082    Z=              0.2398  Tot=              0.3268
 Quadrupole moment (field-independent basis, Debye-Ang):
   XX=            -31.7750   YY=            -32.0165   ZZ=            -39.0432
   XY=             -0.0046   XZ=             -0.2286   YZ=              0.5397

 Normal termination of Gaussian 16 at Fri Nov 10 21:07:35 2023.
