 Gaussian 16, Revision B.01,
 Gaussian 16:  EM64L-G16RevB.01 20-Dec-2017

 ---------------------------------
 # TD=(NStates=1) B3LYP/6-31G(d,p)
 ---------------------------------

 -------
 EMISPCT
 -------
 Symbolic Z-matrix:
 Charge =  0 Multiplicity = 1

                         Standard orientation:
 ---------------------------------------------------------------------
 Center     Atomic      Atomic             Coordinates (Angstroms)
 Number     Number       Type             X           Y           Z
 ---------------------------------------------------------------------
      1          6           0       -0.274087   -1.406815   -0.003323
      2          6           0        1.037706   -0.943293    0.084938
      3          6           0        1.421271    0.436284   -0.104317
      4          6           0        0.321337    1.372075    0.074490
      5          6           0       -1.099283    0.990473   -0.008220
      6          6           0       -1.419048   -0.475062   -0.130566
      7          1           0       -0.362400   -2.471489    0.085830
      8          1           0       -2.547909   -0.848156    0.228419
      9          1           0       -1.845039    1.825501    0.046211
     10          1           0        0.387523    2.510684    0.239630
     11          1           0        2.613760    0.747791   -0.261836
     12          1           0        1.826696   -1.606311    0.183732
 ---------------------------------------------------------------------

 SCF Done:  E(RB3LYP) =  -232.182114617     A.U. after   14 cycles

 Excitation energies and oscillator strengths:

 Excited State   1:      Singlet-A      4.7604 eV  260.45 nm  f=0.0051  <S**2>=0.000
      20 -> 22         0.56270
      21 -> 23        -0.42057
 This state for optimization and/or second-order correction.
 Total Energy, E(TD-HF/TD-DFT) =  -232.007173484
 Copying the excited state density for this state as the 1-particle RhoCI density.

 The electronic state is 1-A.
 Alpha  occ. eigenvalues --  -10.22381 -10.22107 -10.21391 -10.21206 -10.20031
 Alpha  occ. eigenvalues --  -10.19230  -0.82332  -0.73157  -0.71799  -0.59109
 Alpha  occ. eigenvalues --   -0.58344  -0.49473  -0.45914  -0.42420  -0.40876
 Alpha  occ. eigenvalues --   -0.39992  -0.34475  -0.34192  -0.32940  -0.24163
 Alpha  occ. eigenvalues --   -0.23516
 Alpha virt. eigenvalues --   -0.02911  -0.00456   0.06547   0.10222   0.11959
 Alpha virt. eigenvalues --    0.13067   0.15136   0.16412   0.18520   0.25641
 Alpha virt. eigenvalues --    0.27024   0.27814   0.30717   0.45748   0.46825

 Mulliken charges:
               1
     1  C   -0.083006
     2  C   -0.072511
     3  C   -0.094679
     4  C   -0.087949
     5  C   -0.099504
     6  C   -0.110889
     7  H    0.094481
     8  H    0.086809
     9  H    0.101902
    10  H    0.084640
    11  H    0.093247
    12  H    0.087459
 Sum of Mulliken charges =  -0.00000

 Dipole moment (field-independent basis, Debye):
    X=              0.2324    Y=              0.0024    Z=              0.3315  Tot=              0.4049
 Quadrupole moment (field-independent basis, Debye-Ang):
   XX=            -31.5971   YY=            -31.5554   ZZ=            -39.4042
   XY=             -0.7800   XZ=             -0.8225   YZ=             -0.2075

 Normal termination of Gaussian 16 at Fri Nov 10 21:28:21 2023.
