 Gaussian 16, Revision B.01,
 Gaussian 16:  EM64L-G16RevB.01 20-Dec-2017

 ---------------------------------
 # TD=(NStates=1) B3LYP/6-31G(d,p)
 ---------------------------------

 -------
 EMISPCT
 -------
 Symbolic Z-matrix:
 Charge =  0 Multiplicity = 1

                         Standard orientation:
 ---------------------------------------------------------------------
 Center     Atomic      Atomic             Coordinates (Angstroms)
 Number     Number       Type             X           Y           Z
 ---------------------------------------------------------------------
      1          6           0       -1.008646   -1.046586    0.043658
      2          6           0        0.416555   -1.314580   -0.044496
      3          6           0        1.331859   -0.327969   -0.036036
      4          6           0        1.027878    1.005941    0.032030
      5          6           0       -0.351199    1.329244    0.035818
      6          6           0       -1.389953    0.322205   -0.045073
      7          1           0       -1.754185   -1.804366    0.156643
      8          1           0       -2.392944    0.748732   -0.126951
      9          1           0       -0.815072    2.298281   -0.031568
     10          1           0        1.554496    1.865409    0.019602
     11          1           0        2.398034   -0.685846    0.015089
     12          1           0        0.850706   -2.231742    0.051776
 ---------------------------------------------------------------------

 SCF Done:  E(RB3LYP) =  -232.221114346     A.U. after   14 cycles

 Excitation energies and oscillator strengths:

 Excited State   1:      Singlet-A      5.3463 eV  231.91 nm  f=0.0017  <S**2>=0.000
      20 -> 22         0.47061
      20 -> 23         0.18670
      21 -> 22         0.24284
      21 -> 23        -0.42932
 This state for optimization and/or second-order correction.
 Total Energy, E(TD-HF/TD-DFT) =  -232.024640563
 Copying the excited state density for this state as the 1-particle RhoCI density.

 The electronic state is 1-A.
 Alpha  occ. eigenvalues --  -10.19831 -10.19323 -10.18805 -10.18637 -10.18270
 Alpha  occ. eigenvalues --  -10.18145  -0.84401  -0.74216  -0.73897  -0.61346
 Alpha  occ. eigenvalues --   -0.58779  -0.52103  -0.46945  -0.43850  -0.42046
 Alpha  occ. eigenvalues --   -0.40955  -0.35629  -0.34159  -0.33161  -0.24748
 Alpha  occ. eigenvalues --   -0.24143
 Alpha virt. eigenvalues --   -0.00807   0.00462   0.09471   0.13795   0.15153
 Alpha virt. eigenvalues --    0.15691   0.17061   0.19357   0.19927   0.28150
 Alpha virt. eigenvalues --    0.29904   0.30323   0.31977   0.46834   0.51449

 Mulliken charges:
               1
     1  C   -0.098011
     2  C   -0.066057
     3  C   -0.092476
     4  C   -0.056063
     5  C   -0.103622
     6  C   -0.088233
     7  H    0.090549
     8  H    0.086887
     9  H    0.082134
    10  H    0.085973
    11  H    0.078758
    12  H    0.080160
 Sum of Mulliken charges =  -0.00000

 Dipole moment (field-independent basis, Debye):
    X=             -0.0828    Y=              0.0829    Z=              0.0621  Tot=              0.1327
 Quadrupole moment (field-independent basis, Debye-Ang):
   XX=            -31.6511   YY=            -31.3237   ZZ=            -38.4975
   XY=             -0.4688   XZ=              0.1435   YZ=             -0.4875

 Normal termination of Gaussian 16 at Fri Nov 10 21:56:50 2023.
