 Gaussian 16, Revision B.01,
 Gaussian 16:  EM64L-G16RevB.01 20-Dec-2017

 ---------------------------------
 # TD=(NStates=1) B3LYP/6-31G(d,p)
 ---------------------------------

 -------
 EMISPCT
 -------
 Symbolic Z-matrix:
 Charge =  0 Multiplicity = 1

                         Standard orientation:
 ---------------------------------------------------------------------
 Center     Atomic      Atomic             Coordinates (Angstroms)
 Number     Number       Type             X           Y           Z
 ---------------------------------------------------------------------
      1          6           0       -1.192457   -0.781941   -0.033153
      2          6           0        0.073312   -1.407399   -0.011590
      3          6           0        1.312118   -0.639553    0.065228
      4          6           0        1.258409    0.787689   -0.113741
      5          6           0       -0.144622    1.420477    0.035337
      6          6           0       -1.295570    0.625420    0.001322
      7          1           0       -2.170537   -1.457123   -0.107376
      8          1           0       -2.163816    1.077646    0.321192
      9          1           0       -0.286130    2.507408   -0.147856
     10          1           0        2.169473    1.299261    0.170323
     11          1           0        2.217983   -1.048998    0.091171
     12          1           0        0.165885   -2.406354    0.012134
 ---------------------------------------------------------------------

 SCF Done:  E(RB3LYP) =  -232.201156862     A.U. after   13 cycles

 Excitation energies and oscillator strengths:

 Excited State   1:      Singlet-A      4.9740 eV  249.26 nm  f=0.0007  <S**2>=0.000
      20 -> 22         0.49180
      20 -> 23         0.10899
      21 -> 22        -0.15074
      21 -> 23         0.47243
 This state for optimization and/or second-order correction.
 Total Energy, E(TD-HF/TD-DFT) =  -232.018363951
 Copying the excited state density for this state as the 1-particle RhoCI density.

 The electronic state is 1-A.
 Alpha  occ. eigenvalues --  -10.20564 -10.20522 -10.20325 -10.19131 -10.18991
 Alpha  occ. eigenvalues --  -10.18749  -0.82921  -0.74352  -0.72386  -0.60157
 Alpha  occ. eigenvalues --   -0.59379  -0.51048  -0.47551  -0.42730  -0.42154
 Alpha  occ. eigenvalues --   -0.40283  -0.35473  -0.33980  -0.32952  -0.24693
 Alpha  occ. eigenvalues --   -0.23724
 Alpha virt. eigenvalues --   -0.02002  -0.00795   0.09045   0.12616   0.14318
 Alpha virt. eigenvalues --    0.15121   0.16932   0.18219   0.19519   0.25821
 Alpha virt. eigenvalues --    0.28496   0.29309   0.30177   0.45295   0.47702

 Mulliken charges:
               1
     1  C   -0.088108
     2  C   -0.069633
     3  C   -0.077881
     4  C   -0.114108
     5  C   -0.110742
     6  C   -0.074530
     7  H    0.083245
     8  H    0.095732
     9  H    0.091914
    10  H    0.096029
    11  H    0.086508
    12  H    0.081575
 Sum of Mulliken charges =  -0.00000

 Dipole moment (field-independent basis, Debye):
    X=              0.0131    Y=             -0.1818    Z=              0.2536  Tot=              0.3123
 Quadrupole moment (field-independent basis, Debye-Ang):
   XX=            -31.1229   YY=            -31.8555   ZZ=            -38.7505
   XY=             -0.3931   XZ=              0.1623   YZ=              0.1867

 Normal termination of Gaussian 16 at Fri Nov 10 22:05:00 2023.
