 Gaussian 16, Revision B.01,
 Gaussian 16:  EM64L-G16RevB.01 20-Dec-2017

 ---------------------------------
 # TD=(NStates=1) B3LYP/6-31G(d,p)
 ---------------------------------

 -------
 EMISPCT
 -------
 Symbolic Z-matrix:
 Charge =  0 Multiplicity = 1

                         Standard orientation:
 ---------------------------------------------------------------------
 Center     Atomic      Atomic             Coordinates (Angstroms)
 Number     Number       Type             X           Y           Z
 ---------------------------------------------------------------------
      1          6           0        0.946319    0.997448    0.089315
      2          6           0        1.443982   -0.309193   -0.106631
      3          6           0        0.414771   -1.319415    0.018087
      4          6           0       -0.948589   -1.029216   -0.004403
      5          6           0       -1.422601    0.315650   -0.058066
      6          6           0       -0.450276    1.338602    0.019810
      7          1           0        1.668558    1.678325    0.213155
      8          1           0       -0.705950    2.353980   -0.036120
      9          1           0       -2.342390    0.389958   -0.084960
     10          1           0       -1.797624   -1.709101    0.078393
     11          1           0        0.676150   -2.293769    0.387280
     12          1           0        2.599625   -0.382645   -0.306420
 ---------------------------------------------------------------------

 SCF Done:  E(RB3LYP) =  -232.191488333     A.U. after   13 cycles

 Excitation energies and oscillator strengths:

 Excited State   1:      Singlet-A      5.0217 eV  246.90 nm  f=0.0053  <S**2>=0.000
      20 -> 22         0.32914
      20 -> 23         0.28712
      21 -> 22         0.45143
      21 -> 23        -0.32345
 This state for optimization and/or second-order correction.
 Total Energy, E(TD-HF/TD-DFT) =  -232.006944009
 Copying the excited state density for this state as the 1-particle RhoCI density.

 The electronic state is 1-A.
 Alpha  occ. eigenvalues --  -10.20581 -10.19354 -10.19039 -10.18729 -10.18363
 Alpha  occ. eigenvalues --  -10.17520  -0.83704  -0.74538  -0.73157  -0.61217
 Alpha  occ. eigenvalues --   -0.59199  -0.51936  -0.47328  -0.44288  -0.41751
 Alpha  occ. eigenvalues --   -0.40346  -0.36547  -0.34280  -0.32763  -0.24262
 Alpha  occ. eigenvalues --   -0.23398
 Alpha virt. eigenvalues --   -0.01268   0.00088   0.08858   0.13801   0.14022
 Alpha virt. eigenvalues --    0.15889   0.16986   0.19292   0.21106   0.28354
 Alpha virt. eigenvalues --    0.28718   0.29847   0.32881   0.47079   0.50051

 Mulliken charges:
               1
     1  C   -0.076034
     2  C   -0.097298
     3  C   -0.110694
     4  C   -0.087455
     5  C   -0.035493
     6  C   -0.084368
     7  H    0.077385
     8  H    0.084313
     9  H    0.055408
    10  H    0.084802
    11  H    0.089805
    12  H    0.099630
 Sum of Mulliken charges =  -0.00000

 Dipole moment (field-independent basis, Debye):
    X=              0.0140    Y=              0.1680    Z=              0.1476  Tot=              0.2240
 Quadrupole moment (field-independent basis, Debye-Ang):
   XX=            -30.2597   YY=            -32.6462   ZZ=            -38.3435
   XY=              0.5227   XZ=             -0.0714   YZ=             -0.5570

 Normal termination of Gaussian 16 at Fri Nov 10 20:23:37 2023.
