 Gaussian 16, Revision B.01,
 Gaussian 16:  EM64L-G16RevB.01 20-Dec-2017

 ---------------------------------
 # TD=(NStates=1) B3LYP/6-31G(d,p)
 ---------------------------------

 -------
 EMISPCT
 -------
 Symbolic Z-matrix:
 Charge =  0 Multiplicity = 1

                         Standard orientation:
 ---------------------------------------------------------------------
 Center     Atomic      Atomic             Coordinates (Angstroms)
 Number     Number       Type             X           Y           Z
 ---------------------------------------------------------------------
      1          6           0        1.267690    0.642088    0.155875
      2          6           0        0.060543    1.414624   -0.161647
      3          6           0       -1.187587    0.725778   -0.004388
      4          6           0       -1.258651   -0.694917    0.066896
      5          6           0       -0.020974   -1.403860   -0.058353
      6          6           0        1.201398   -0.730291   -0.078570
      7          1           0        2.027545    1.113936    0.183930
      8          1           0        2.090322   -1.082935    0.079601
      9          1           0       -0.083913   -2.422069   -0.046760
     10          1           0       -2.140567   -1.086615    0.115862
     11          1           0       -2.126514    1.198631    0.185468
     12          1           0       -0.141382    2.558522   -0.036976
 ---------------------------------------------------------------------

 SCF Done:  E(RB3LYP) =  -232.154882855     A.U. after   14 cycles

 Excitation energies and oscillator strengths:

 Excited State   1:      Singlet-A      5.0669 eV  244.69 nm  f=0.0018  <S**2>=0.000
      20 -> 22         0.52718
      21 -> 22         0.11658
      21 -> 23         0.44682
 This state for optimization and/or second-order correction.
 Total Energy, E(TD-HF/TD-DFT) =  -231.968677086
 Copying the excited state density for this state as the 1-particle RhoCI density.

 The electronic state is 1-A.
 Alpha  occ. eigenvalues --  -10.20173 -10.18822 -10.18796 -10.17943 -10.17873
 Alpha  occ. eigenvalues --  -10.17767  -0.83981  -0.75196  -0.73245  -0.61801
 Alpha  occ. eigenvalues --   -0.60194  -0.52423  -0.48850  -0.43972  -0.41949
 Alpha  occ. eigenvalues --   -0.40689  -0.35682  -0.34874  -0.32555  -0.24443
 Alpha  occ. eigenvalues --   -0.23950
 Alpha virt. eigenvalues --   -0.01695  -0.00232   0.10592   0.12841   0.14957
 Alpha virt. eigenvalues --    0.16513   0.17833   0.20489   0.21324   0.28656
 Alpha virt. eigenvalues --    0.28818   0.30414   0.31198   0.45466   0.48145

 Mulliken charges:
               1
     1  C   -0.052761
     2  C   -0.111584
     3  C   -0.092052
     4  C   -0.050497
     5  C   -0.083914
     6  C   -0.070866
     7  H    0.064198
     8  H    0.080268
     9  H    0.081213
    10  H    0.071308
    11  H    0.084748
    12  H    0.079938
 Sum of Mulliken charges =  -0.00000

 Dipole moment (field-independent basis, Debye):
    X=             -0.0722    Y=             -0.1144    Z=              0.3439  Tot=              0.3695
 Quadrupole moment (field-independent basis, Debye-Ang):
   XX=            -30.7040   YY=            -32.1739   ZZ=            -38.2381
   XY=              0.1199   XZ=             -0.0364   YZ=              0.2695

 Normal termination of Gaussian 16 at Fri Nov 10 22:30:44 2023.
