 Gaussian 16, Revision B.01,
 Gaussian 16:  EM64L-G16RevB.01 20-Dec-2017

 ---------------------------------
 # TD=(NStates=1) B3LYP/6-31G(d,p)
 ---------------------------------

 -------
 EMISPCT
 -------
 Symbolic Z-matrix:
 Charge =  0 Multiplicity = 1

                         Standard orientation:
 ---------------------------------------------------------------------
 Center     Atomic      Atomic             Coordinates (Angstroms)
 Number     Number       Type             X           Y           Z
 ---------------------------------------------------------------------
      1          6           0        0.774505   -1.230521   -0.057277
      2          6           0       -0.711070   -1.217007    0.057109
      3          6           0       -1.423857   -0.102055   -0.032737
      4          6           0       -0.781063    1.167277   -0.172382
      5          6           0        0.661236    1.342355    0.159955
      6          6           0        1.511295    0.034428   -0.072263
      7          1           0        1.370328   -2.086097   -0.019998
      8          1           0        2.649776   -0.075678    0.091492
      9          1           0        1.016153    2.381733    0.137070
     10          1           0       -1.421284    2.052980    0.039725
     11          1           0       -2.517374   -0.136002    0.217112
     12          1           0       -1.283881   -2.103795    0.240169
 ---------------------------------------------------------------------

 SCF Done:  E(RB3LYP) =  -232.187958620     A.U. after   14 cycles

 Excitation energies and oscillator strengths:

 Excited State   1:      Singlet-A      4.8022 eV  258.18 nm  f=0.0003  <S**2>=0.000
      20 -> 22         0.51967
      21 -> 23        -0.47902
 This state for optimization and/or second-order correction.
 Total Energy, E(TD-HF/TD-DFT) =  -232.011480689
 Copying the excited state density for this state as the 1-particle RhoCI density.

 The electronic state is 1-A.
 Alpha  occ. eigenvalues --  -10.22189 -10.21955 -10.20454 -10.20235 -10.19215
 Alpha  occ. eigenvalues --  -10.19073  -0.82650  -0.73128  -0.72224  -0.59827
 Alpha  occ. eigenvalues --   -0.58081  -0.50669  -0.46572  -0.42170  -0.41176
 Alpha  occ. eigenvalues --   -0.40436  -0.34829  -0.33751  -0.33037  -0.24442
 Alpha  occ. eigenvalues --   -0.23705
 Alpha virt. eigenvalues --   -0.02517  -0.01392   0.08673   0.11284   0.13095
 Alpha virt. eigenvalues --    0.14124   0.15539   0.17285   0.19346   0.24782
 Alpha virt. eigenvalues --    0.26189   0.28594   0.29985   0.42780   0.47611

 Mulliken charges:
               1
     1  C   -0.090522
     2  C   -0.064073
     3  C   -0.075819
     4  C   -0.105886
     5  C   -0.108221
     6  C   -0.113119
     7  H    0.095797
     8  H    0.094806
     9  H    0.104252
    10  H    0.085563
    11  H    0.092295
    12  H    0.084927
 Sum of Mulliken charges =  -0.00000

 Dipole moment (field-independent basis, Debye):
    X=             -0.0720    Y=             -0.1847    Z=              0.4534  Tot=              0.4949
 Quadrupole moment (field-independent basis, Debye-Ang):
   XX=            -31.2853   YY=            -31.7203   ZZ=            -39.1781
   XY=             -0.2868   XZ=             -0.3868   YZ=             -0.0003

 Normal termination of Gaussian 16 at Fri Nov 10 22:07:54 2023.
