 Gaussian 16, Revision B.01,
 Gaussian 16:  EM64L-G16RevB.01 20-Dec-2017

 ---------------------------------
 # TD=(NStates=1) B3LYP/6-31G(d,p)
 ---------------------------------

 -------
 EMISPCT
 -------
 Symbolic Z-matrix:
 Charge =  0 Multiplicity = 1

                         Standard orientation:
 ---------------------------------------------------------------------
 Center     Atomic      Atomic             Coordinates (Angstroms)
 Number     Number       Type             X           Y           Z
 ---------------------------------------------------------------------
      1          6           0        0.702158   -1.228575    0.025708
      2          6           0       -0.764527   -1.222636    0.072593
      3          6           0       -1.426583    0.037259   -0.010612
      4          6           0       -0.742010    1.265956   -0.074550
      5          6           0        0.758008    1.194241    0.055461
      6          6           0        1.429675   -0.047980   -0.060126
      7          1           0        1.242998   -2.138718   -0.185706
      8          1           0        2.553867   -0.043214   -0.128846
      9          1           0        1.476331    2.173204    0.357687
     10          1           0       -1.286090    2.096454   -0.129904
     11          1           0       -2.395273    0.007575    0.020611
     12          1           0       -1.332156   -2.084900    0.015314
 ---------------------------------------------------------------------

 SCF Done:  E(RB3LYP) =  -232.198887723     A.U. after   13 cycles

 Excitation energies and oscillator strengths:

 Excited State   1:      Singlet-A      5.0557 eV  245.23 nm  f=0.0015  <S**2>=0.000
      20 -> 22         0.50755
      21 -> 22        -0.12894
      21 -> 23        -0.47102
 This state for optimization and/or second-order correction.
 Total Energy, E(TD-HF/TD-DFT) =  -232.013092750
 Copying the excited state density for this state as the 1-particle RhoCI density.

 The electronic state is 1-A.
 Alpha  occ. eigenvalues --  -10.21684 -10.19552 -10.19521 -10.19466 -10.19250
 Alpha  occ. eigenvalues --  -10.18178  -0.83147  -0.74695  -0.72234  -0.60718
 Alpha  occ. eigenvalues --   -0.58965  -0.51422  -0.46941  -0.42777  -0.42532
 Alpha  occ. eigenvalues --   -0.40637  -0.35605  -0.33831  -0.33271  -0.24995
 Alpha  occ. eigenvalues --   -0.23133
 Alpha virt. eigenvalues --   -0.02066   0.00319   0.08188   0.12820   0.14034
 Alpha virt. eigenvalues --    0.15340   0.16813   0.17831   0.20356   0.26885
 Alpha virt. eigenvalues --    0.28459   0.29994   0.31261   0.47210   0.48549

 Mulliken charges:
               1
     1  C   -0.093622
     2  C   -0.087937
     3  C   -0.065420
     4  C   -0.078242
     5  C   -0.102588
     6  C   -0.074080
     7  H    0.086846
     8  H    0.091684
     9  H    0.075883
    10  H    0.085242
    11  H    0.074283
    12  H    0.087950
 Sum of Mulliken charges =  -0.00000

 Dipole moment (field-independent basis, Debye):
    X=             -0.1772    Y=             -0.0727    Z=             -0.0682  Tot=              0.2033
 Quadrupole moment (field-independent basis, Debye-Ang):
   XX=            -30.7555   YY=            -32.0475   ZZ=            -38.7459
   XY=             -0.0842   XZ=              0.0411   YZ=              0.6368

 Normal termination of Gaussian 16 at Fri Nov 10 22:12:21 2023.
