 Gaussian 16, Revision B.01,
 Gaussian 16:  EM64L-G16RevB.01 20-Dec-2017

 ---------------------------------
 # TD=(NStates=1) B3LYP/6-31G(d,p)
 ---------------------------------

 -------
 EMISPCT
 -------
 Symbolic Z-matrix:
 Charge =  0 Multiplicity = 1

                         Standard orientation:
 ---------------------------------------------------------------------
 Center     Atomic      Atomic             Coordinates (Angstroms)
 Number     Number       Type             X           Y           Z
 ---------------------------------------------------------------------
      1          6           0        1.421926    0.310107    0.012398
      2          6           0        0.479594    1.303859    0.028945
      3          6           0       -0.961216    1.046780   -0.080707
      4          6           0       -1.425701   -0.329105    0.053002
      5          6           0       -0.409932   -1.363079    0.020849
      6          6           0        0.893341   -1.035428   -0.099891
      7          1           0        2.491880    0.413170    0.217100
      8          1           0        1.686378   -1.832431   -0.206399
      9          1           0       -0.797573   -2.312675    0.312069
     10          1           0       -2.397733   -0.411597    0.029403
     11          1           0       -1.671398    2.079591   -0.204000
     12          1           0        0.700383    2.465135    0.244256
 ---------------------------------------------------------------------

 SCF Done:  E(RB3LYP) =  -232.195094676     A.U. after   13 cycles

 Excitation energies and oscillator strengths:

 Excited State   1:      Singlet-A      5.1887 eV  238.95 nm  f=0.0008  <S**2>=0.000
      20 -> 22         0.50072
      20 -> 23         0.11342
      21 -> 22         0.14275
      21 -> 23        -0.46433
 This state for optimization and/or second-order correction.
 Total Energy, E(TD-HF/TD-DFT) =  -232.004415145
 Copying the excited state density for this state as the 1-particle RhoCI density.

 The electronic state is 1-A.
 Alpha  occ. eigenvalues --  -10.21416 -10.20378 -10.19714 -10.19611 -10.19242
 Alpha  occ. eigenvalues --  -10.19173  -0.83809  -0.74144  -0.72812  -0.60443
 Alpha  occ. eigenvalues --   -0.58384  -0.50713  -0.46779  -0.43240  -0.41782
 Alpha  occ. eigenvalues --   -0.39749  -0.36090  -0.34310  -0.31571  -0.24851
 Alpha  occ. eigenvalues --   -0.23920
 Alpha virt. eigenvalues --   -0.01380  -0.00052   0.07072   0.11201   0.13224
 Alpha virt. eigenvalues --    0.14866   0.16199   0.17656   0.18472   0.26714
 Alpha virt. eigenvalues --    0.28696   0.29310   0.33376   0.46211   0.50441

 Mulliken charges:
               1
     1  C   -0.073631
     2  C   -0.087573
     3  C   -0.093651
     4  C   -0.086905
     5  C   -0.076358
     6  C   -0.100995
     7  H    0.099978
     8  H    0.082181
     9  H    0.097065
    10  H    0.086248
    11  H    0.078468
    12  H    0.075172
 Sum of Mulliken charges =  -0.00000

 Dipole moment (field-independent basis, Debye):
    X=              0.0001    Y=             -0.1231    Z=              0.2713  Tot=              0.2979
 Quadrupole moment (field-independent basis, Debye-Ang):
   XX=            -31.2495   YY=            -32.2150   ZZ=            -38.8014
   XY=             -0.1968   XZ=              0.2707   YZ=             -0.1640

 Normal termination of Gaussian 16 at Fri Nov 10 22:45:06 2023.
