 Gaussian 16, Revision B.01,
 Gaussian 16:  EM64L-G16RevB.01 20-Dec-2017

 ---------------------------------
 # TD=(NStates=1) B3LYP/6-31G(d,p)
 ---------------------------------

 -------
 EMISPCT
 -------
 Symbolic Z-matrix:
 Charge =  0 Multiplicity = 1

                         Standard orientation:
 ---------------------------------------------------------------------
 Center     Atomic      Atomic             Coordinates (Angstroms)
 Number     Number       Type             X           Y           Z
 ---------------------------------------------------------------------
      1          6           0       -0.122638   -1.373001   -0.059616
      2          6           0        1.156073   -0.767623    0.122815
      3          6           0        1.321587    0.537572   -0.067686
      4          6           0        0.171650    1.347865    0.033979
      5          6           0       -1.184056    0.827991    0.000145
      6          6           0       -1.341387   -0.562879   -0.052614
      7          1           0       -0.145054   -2.349253   -0.245898
      8          1           0       -2.347239   -1.086354    0.174394
      9          1           0       -2.023862    1.393970    0.234994
     10          1           0        0.234226    2.467228   -0.092226
     11          1           0        2.305096    0.964183   -0.228741
     12          1           0        1.969465   -1.449332    0.295346
 ---------------------------------------------------------------------

 SCF Done:  E(RB3LYP) =  -232.214476715     A.U. after   13 cycles

 Excitation energies and oscillator strengths:

 Excited State   1:      Singlet-A      5.0879 eV  243.68 nm  f=0.0008  <S**2>=0.000
      20 -> 22         0.48000
      21 -> 23         0.51619
 This state for optimization and/or second-order correction.
 Total Energy, E(TD-HF/TD-DFT) =  -232.027498651
 Copying the excited state density for this state as the 1-particle RhoCI density.

 The electronic state is 1-A.
 Alpha  occ. eigenvalues --  -10.19987 -10.19712 -10.18877 -10.18752 -10.18610
 Alpha  occ. eigenvalues --  -10.18507  -0.84277  -0.74807  -0.72692  -0.60375
 Alpha  occ. eigenvalues --   -0.58953  -0.51764  -0.46507  -0.43320  -0.42831
 Alpha  occ. eigenvalues --   -0.40386  -0.36431  -0.34070  -0.32969  -0.24960
 Alpha  occ. eigenvalues --   -0.23061
 Alpha virt. eigenvalues --   -0.01368   0.00038   0.09386   0.13395   0.13502
 Alpha virt. eigenvalues --    0.15883   0.17313   0.18326   0.19632   0.27510
 Alpha virt. eigenvalues --    0.29938   0.31303   0.32133   0.46965   0.49822

 Mulliken charges:
               1
     1  C   -0.085587
     2  C   -0.076404
     3  C   -0.069127
     4  C   -0.107145
     5  C   -0.082286
     6  C   -0.097591
     7  H    0.082959
     8  H    0.088917
     9  H    0.090189
    10  H    0.079567
    11  H    0.092384
    12  H    0.084122
 Sum of Mulliken charges =  -0.00000

 Dipole moment (field-independent basis, Debye):
    X=              0.1592    Y=             -0.1758    Z=              0.0858  Tot=              0.2522
 Quadrupole moment (field-independent basis, Debye-Ang):
   XX=            -31.2093   YY=            -32.0535   ZZ=            -38.3993
   XY=             -0.1781   XZ=             -0.7439   YZ=             -0.0825

 Normal termination of Gaussian 16 at Fri Nov 10 23:01:50 2023.
