 Gaussian 16, Revision B.01,
 Gaussian 16:  EM64L-G16RevB.01 20-Dec-2017

 ---------------------------------
 # TD=(NStates=1) B3LYP/6-31G(d,p)
 ---------------------------------

 -------
 EMISPCT
 -------
 Symbolic Z-matrix:
 Charge =  0 Multiplicity = 1

                         Standard orientation:
 ---------------------------------------------------------------------
 Center     Atomic      Atomic             Coordinates (Angstroms)
 Number     Number       Type             X           Y           Z
 ---------------------------------------------------------------------
      1          6           0        0.261317   -1.337624   -0.027911
      2          6           0       -1.095412   -0.938445   -0.017204
      3          6           0       -1.366832    0.432296    0.005430
      4          6           0       -0.355264    1.391702   -0.062470
      5          6           0        1.124623    0.906736    0.020442
      6          6           0        1.398168   -0.471105    0.097811
      7          1           0        0.588822   -2.415663   -0.187264
      8          1           0        2.499748   -0.760909   -0.089349
      9          1           0        1.862519    1.693865    0.072147
     10          1           0       -0.330302    2.350026   -0.309769
     11          1           0       -2.406545    0.833503    0.454287
     12          1           0       -2.013842   -1.602185   -0.036634
 ---------------------------------------------------------------------

 SCF Done:  E(RB3LYP) =  -232.192639040     A.U. after   13 cycles

 Excitation energies and oscillator strengths:

 Excited State   1:      Singlet-A      4.9296 eV  251.51 nm  f=0.0005  <S**2>=0.000
      20 -> 22        -0.48487
      21 -> 23         0.50957
 This state for optimization and/or second-order correction.
 Total Energy, E(TD-HF/TD-DFT) =  -232.011479935
 Copying the excited state density for this state as the 1-particle RhoCI density.

 The electronic state is 1-A.
 Alpha  occ. eigenvalues --  -10.20419 -10.20370 -10.20315 -10.20131 -10.20118
 Alpha  occ. eigenvalues --  -10.19278  -0.83304  -0.74055  -0.72530  -0.60231
 Alpha  occ. eigenvalues --   -0.58524  -0.50486  -0.46454  -0.43620  -0.41503
 Alpha  occ. eigenvalues --   -0.40162  -0.35557  -0.34098  -0.31800  -0.24726
 Alpha  occ. eigenvalues --   -0.23307
 Alpha virt. eigenvalues --   -0.01789  -0.00822   0.07797   0.11750   0.13181
 Alpha virt. eigenvalues --    0.14944   0.15527   0.16487   0.18959   0.25169
 Alpha virt. eigenvalues --    0.28179   0.30441   0.31989   0.46201   0.47814

 Mulliken charges:
               1
     1  C   -0.098922
     2  C   -0.076803
     3  C   -0.101575
     4  C   -0.068788
     5  C   -0.111708
     6  C   -0.083962
     7  H    0.082482
     8  H    0.096329
     9  H    0.089621
    10  H    0.089882
    11  H    0.083999
    12  H    0.099445
 Sum of Mulliken charges =  -0.00000

 Dipole moment (field-independent basis, Debye):
    X=              0.1831    Y=              0.1635    Z=             -0.1061  Tot=              0.2674
 Quadrupole moment (field-independent basis, Debye-Ang):
   XX=            -31.4347   YY=            -32.1162   ZZ=            -38.8112
   XY=              0.5634   XZ=             -0.8843   YZ=              0.1812

 Normal termination of Gaussian 16 at Fri Nov 10 20:58:08 2023.
