 Gaussian 16, Revision B.01,
 Gaussian 16:  EM64L-G16RevB.01 20-Dec-2017

 ---------------------------------
 # TD=(NStates=1) B3LYP/6-31G(d,p)
 ---------------------------------

 -------
 EMISPCT
 -------
 Symbolic Z-matrix:
 Charge =  0 Multiplicity = 1

                         Standard orientation:
 ---------------------------------------------------------------------
 Center     Atomic      Atomic             Coordinates (Angstroms)
 Number     Number       Type             X           Y           Z
 ---------------------------------------------------------------------
      1          6           0        0.511754    1.280316    0.019058
      2          6           0        1.471023    0.229835   -0.063447
      3          6           0        0.858478   -1.125558    0.004917
      4          6           0       -0.540394   -1.290232    0.032364
      5          6           0       -1.414869   -0.221646    0.028586
      6          6           0       -0.928582    1.132438   -0.027245
      7          1           0        0.872667    2.263449    0.180853
      8          1           0       -1.390668    2.105851   -0.116005
      9          1           0       -2.542381   -0.415639   -0.053458
     10          1           0       -1.006535   -2.364244   -0.014331
     11          1           0        1.651646   -1.890465   -0.100285
     12          1           0        2.670809    0.270121    0.137823
 ---------------------------------------------------------------------

 SCF Done:  E(RB3LYP) =  -232.212107232     A.U. after   13 cycles

 Excitation energies and oscillator strengths:

 Excited State   1:      Singlet-A      5.1381 eV  241.30 nm  f=0.0029  <S**2>=0.000
      20 -> 22         0.48333
      20 -> 23        -0.15683
      21 -> 22         0.23999
      21 -> 23         0.42859
 This state for optimization and/or second-order correction.
 Total Energy, E(TD-HF/TD-DFT) =  -232.023285247
 Copying the excited state density for this state as the 1-particle RhoCI density.

 The electronic state is 1-A.
 Alpha  occ. eigenvalues --  -10.21127 -10.20528 -10.20244 -10.20189 -10.20149
 Alpha  occ. eigenvalues --  -10.19367  -0.83326  -0.73566  -0.72772  -0.59715
 Alpha  occ. eigenvalues --   -0.58485  -0.50448  -0.45586  -0.43408  -0.40862
 Alpha  occ. eigenvalues --   -0.40597  -0.35348  -0.34232  -0.32091  -0.24798
 Alpha  occ. eigenvalues --   -0.23938
 Alpha virt. eigenvalues --   -0.01676  -0.00032   0.07267   0.11117   0.13322
 Alpha virt. eigenvalues --    0.14325   0.16148   0.16539   0.18587   0.26213
 Alpha virt. eigenvalues --    0.27874   0.30106   0.31851   0.46665   0.48048

 Mulliken charges:
               1
     1  C   -0.099640
     2  C   -0.094181
     3  C   -0.099940
     4  C   -0.069114
     5  C   -0.098730
     6  C   -0.078975
     7  H    0.081767
     8  H    0.100181
     9  H    0.088950
    10  H    0.086003
    11  H    0.091099
    12  H    0.092579
 Sum of Mulliken charges =  -0.00000

 Dipole moment (field-independent basis, Debye):
    X=              0.0278    Y=              0.0889    Z=              0.0241  Tot=              0.0962
 Quadrupole moment (field-independent basis, Debye-Ang):
   XX=            -31.3361   YY=            -31.8261   ZZ=            -39.1480
   XY=             -0.3106   XZ=              0.5862   YZ=              0.3254

 Normal termination of Gaussian 16 at Fri Nov 10 22:47:50 2023.
