 Gaussian 16, Revision B.01,
 Gaussian 16:  EM64L-G16RevB.01 20-Dec-2017

 ---------------------------------
 # TD=(NStates=1) B3LYP/6-31G(d,p)
 ---------------------------------

 -------
 EMISPCT
 -------
 Symbolic Z-matrix:
 Charge =  0 Multiplicity = 1

                         Standard orientation:
 ---------------------------------------------------------------------
 Center     Atomic      Atomic             Coordinates (Angstroms)
 Number     Number       Type             X           Y           Z
 ---------------------------------------------------------------------
      1          6           0        1.455470   -0.462801   -0.040093
      2          6           0        1.037634    0.966818    0.038029
      3          6           0       -0.375634    1.334985    0.020610
      4          6           0       -1.337584    0.462852   -0.100165
      5          6           0       -1.064840   -0.988216    0.009510
      6          6           0        0.339800   -1.341195    0.048142
      7          1           0        2.515626   -0.601544   -0.005626
      8          1           0        0.430743   -2.383550   -0.066301
      9          1           0       -2.087313   -1.697443    0.198890
     10          1           0       -2.451674    0.671107   -0.113797
     11          1           0       -0.457504    2.469439    0.333897
     12          1           0        1.721046    1.707337   -0.203262
 ---------------------------------------------------------------------

 SCF Done:  E(RB3LYP) =  -232.179558051     A.U. after   14 cycles

 Excitation energies and oscillator strengths:

 Excited State   1:      Singlet-A      4.9829 eV  248.82 nm  f=0.0087  <S**2>=0.000
      20 -> 22         0.45809
      20 -> 23        -0.11557
      21 -> 22        -0.30256
      21 -> 23        -0.42806
 This state for optimization and/or second-order correction.
 Total Energy, E(TD-HF/TD-DFT) =  -231.996439829
 Copying the excited state density for this state as the 1-particle RhoCI density.

 The electronic state is 1-A.
 Alpha  occ. eigenvalues --  -10.21804 -10.20548 -10.19844 -10.19598 -10.19524
 Alpha  occ. eigenvalues --  -10.19439  -0.83398  -0.74371  -0.72173  -0.59874
 Alpha  occ. eigenvalues --   -0.58806  -0.50396  -0.45986  -0.44889  -0.40150
 Alpha  occ. eigenvalues --   -0.39330  -0.36126  -0.34844  -0.30995  -0.25354
 Alpha  occ. eigenvalues --   -0.22910
 Alpha virt. eigenvalues --   -0.02439   0.00317   0.05876   0.11713   0.13597
 Alpha virt. eigenvalues --    0.14132   0.16546   0.17064   0.18517   0.24863
 Alpha virt. eigenvalues --    0.26552   0.30452   0.33545   0.45590   0.47570

 Mulliken charges:
               1
     1  C   -0.078398
     2  C   -0.113311
     3  C   -0.072675
     4  C   -0.075976
     5  C   -0.101488
     6  C   -0.103400
     7  H    0.103982
     8  H    0.085814
     9  H    0.095281
    10  H    0.083312
    11  H    0.084516
    12  H    0.092344
 Sum of Mulliken charges =  -0.00000

 Dipole moment (field-independent basis, Debye):
    X=              0.0395    Y=              0.0299    Z=              0.0604  Tot=              0.0781
 Quadrupole moment (field-independent basis, Debye-Ang):
   XX=            -30.6443   YY=            -32.6614   ZZ=            -38.9495
   XY=              0.9296   XZ=             -0.6003   YZ=              0.1441

 Normal termination of Gaussian 16 at Fri Nov 10 22:38:16 2023.
