 Gaussian 16, Revision B.01,
 Gaussian 16:  EM64L-G16RevB.01 20-Dec-2017

 ---------------------------------
 # TD=(NStates=1) B3LYP/6-31G(d,p)
 ---------------------------------

 -------
 EMISPCT
 -------
 Symbolic Z-matrix:
 Charge =  0 Multiplicity = 1

                         Standard orientation:
 ---------------------------------------------------------------------
 Center     Atomic      Atomic             Coordinates (Angstroms)
 Number     Number       Type             X           Y           Z
 ---------------------------------------------------------------------
      1          6           0       -1.377535   -0.344814   -0.166829
      2          6           0       -0.979383    1.038637    0.120474
      3          6           0        0.379488    1.377111   -0.043026
      4          6           0        1.352435    0.318177   -0.072921
      5          6           0        0.980694   -1.034564    0.164086
      6          6           0       -0.397802   -1.364556   -0.044747
      7          1           0       -2.400529   -0.705307   -0.178118
      8          1           0       -0.769697   -2.244203    0.152637
      9          1           0        1.921347   -1.687182    0.152066
     10          1           0        2.549315    0.596979   -0.300199
     11          1           0        0.699486    2.382453   -0.055882
     12          1           0       -1.747303    1.717313    0.487284
 ---------------------------------------------------------------------

 SCF Done:  E(RB3LYP) =  -232.197616075     A.U. after   13 cycles

 Excitation energies and oscillator strengths:

 Excited State   1:      Singlet-A      4.9362 eV  251.18 nm  f=0.0004  <S**2>=0.000
      20 -> 22         0.52487
      21 -> 23        -0.46754
 This state for optimization and/or second-order correction.
 Total Energy, E(TD-HF/TD-DFT) =  -232.016215639
 Copying the excited state density for this state as the 1-particle RhoCI density.

 The electronic state is 1-A.
 Alpha  occ. eigenvalues --  -10.20854 -10.20197 -10.19983 -10.19819 -10.19343
 Alpha  occ. eigenvalues --  -10.18765  -0.83442  -0.73976  -0.72774  -0.60283
 Alpha  occ. eigenvalues --   -0.58465  -0.50977  -0.46678  -0.43398  -0.41351
 Alpha  occ. eigenvalues --   -0.40412  -0.35696  -0.33824  -0.33019  -0.24145
 Alpha  occ. eigenvalues --   -0.23711
 Alpha virt. eigenvalues --   -0.01653  -0.00660   0.07758   0.11716   0.13597
 Alpha virt. eigenvalues --    0.14644   0.16536   0.17575   0.19678   0.27484
 Alpha virt. eigenvalues --    0.28513   0.29858   0.31638   0.46925   0.47897

 Mulliken charges:
               1
     1  C   -0.098923
     2  C   -0.093605
     3  C   -0.079594
     4  C   -0.090833
     5  C   -0.089030
     6  C   -0.079562
     7  H    0.090446
     8  H    0.087837
     9  H    0.091346
    10  H    0.072832
    11  H    0.092484
    12  H    0.096600
 Sum of Mulliken charges =  -0.00000

 Dipole moment (field-independent basis, Debye):
    X=             -0.2116    Y=              0.0529    Z=              0.2144  Tot=              0.3058
 Quadrupole moment (field-independent basis, Debye-Ang):
   XX=            -31.3106   YY=            -32.0900   ZZ=            -38.7010
   XY=              0.3372   XZ=             -0.8932   YZ=              0.0601

 Normal termination of Gaussian 16 at Fri Nov 10 23:05:38 2023.
