 Gaussian 16, Revision B.01,
 Gaussian 16:  EM64L-G16RevB.01 20-Dec-2017

 ---------------------------------
 # TD=(NStates=1) B3LYP/6-31G(d,p)
 ---------------------------------

 -------
 EMISPCT
 -------
 Symbolic Z-matrix:
 Charge =  0 Multiplicity = 1

                         Standard orientation:
 ---------------------------------------------------------------------
 Center     Atomic      Atomic             Coordinates (Angstroms)
 Number     Number       Type             X           Y           Z
 ---------------------------------------------------------------------
      1          6           0       -0.931416   -1.103024   -0.015841
      2          6           0       -1.455769    0.205503    0.089898
      3          6           0       -0.468175    1.302168    0.004382
      4          6           0        0.937461    1.084567   -0.087237
      5          6           0        1.416992   -0.239796    0.098932
      6          6           0        0.510475   -1.282886   -0.114564
      7          1           0       -1.599249   -1.969563    0.159490
      8          1           0        0.887821   -2.357856   -0.297656
      9          1           0        2.582000   -0.500207    0.436571
     10          1           0        1.582067    2.017427    0.048673
     11          1           0       -0.963254    2.442603   -0.306951
     12          1           0       -2.546786    0.568405    0.106447
 ---------------------------------------------------------------------

 SCF Done:  E(RB3LYP) =  -232.191047910     A.U. after   13 cycles

 Excitation energies and oscillator strengths:

 Excited State   1:      Singlet-A      4.9719 eV  249.37 nm  f=0.0002  <S**2>=0.000
      20 -> 22         0.50158
      21 -> 23        -0.49782
 This state for optimization and/or second-order correction.
 Total Energy, E(TD-HF/TD-DFT) =  -232.008334095
 Copying the excited state density for this state as the 1-particle RhoCI density.

 The electronic state is 1-A.
 Alpha  occ. eigenvalues --  -10.21497 -10.21401 -10.20787 -10.20693 -10.20607
 Alpha  occ. eigenvalues --  -10.20441  -0.83474  -0.73605  -0.72273  -0.59049
 Alpha  occ. eigenvalues --   -0.57829  -0.49633  -0.44565  -0.43210  -0.41461
 Alpha  occ. eigenvalues --   -0.39204  -0.36264  -0.33765  -0.31804  -0.24717
 Alpha  occ. eigenvalues --   -0.23791
 Alpha virt. eigenvalues --   -0.01737  -0.01043   0.06230   0.09557   0.11994
 Alpha virt. eigenvalues --    0.13786   0.15367   0.15680   0.16214   0.25809
 Alpha virt. eigenvalues --    0.28888   0.30124   0.31253   0.46697   0.48257

 Mulliken charges:
               1
     1  C   -0.093401
     2  C   -0.085554
     3  C   -0.089570
     4  C   -0.093925
     5  C   -0.081260
     6  C   -0.092039
     7  H    0.098449
     8  H    0.089681
     9  H    0.088978
    10  H    0.095059
    11  H    0.064854
    12  H    0.098729
 Sum of Mulliken charges =  -0.00000

 Dipole moment (field-independent basis, Debye):
    X=             -0.0214    Y=             -0.2140    Z=              0.1265  Tot=              0.2495
 Quadrupole moment (field-independent basis, Debye-Ang):
   XX=            -31.6442   YY=            -32.2647   ZZ=            -39.1794
   XY=             -0.1130   XZ=              0.5148   YZ=             -0.2680

 Normal termination of Gaussian 16 at Fri Nov 10 20:33:47 2023.
