 Gaussian 16, Revision B.01,
 Gaussian 16:  EM64L-G16RevB.01 20-Dec-2017

 ---------------------------------
 # TD=(NStates=1) B3LYP/6-31G(d,p)
 ---------------------------------

 -------
 EMISPCT
 -------
 Symbolic Z-matrix:
 Charge =  0 Multiplicity = 1

                         Standard orientation:
 ---------------------------------------------------------------------
 Center     Atomic      Atomic             Coordinates (Angstroms)
 Number     Number       Type             X           Y           Z
 ---------------------------------------------------------------------
      1          6           0       -0.271614   -1.330844    0.175521
      2          6           0        1.117993   -0.938796   -0.071353
      3          6           0        1.372343    0.441068   -0.064844
      4          6           0        0.290163    1.448113    0.140839
      5          6           0       -1.104512    0.902280   -0.063374
      6          6           0       -1.389606   -0.492730   -0.108277
      7          1           0       -0.537252   -2.278439    0.443495
      8          1           0       -2.442537   -0.958313   -0.467950
      9          1           0       -1.963492    1.695508    0.217951
     10          1           0        0.574959    2.489488    0.101956
     11          1           0        2.393864    0.585158   -0.297704
     12          1           0        1.885851   -1.707947   -0.048825
 ---------------------------------------------------------------------

 SCF Done:  E(RB3LYP) =  -232.181279856     A.U. after   13 cycles

 Excitation energies and oscillator strengths:

 Excited State   1:      Singlet-A      4.6752 eV  265.19 nm  f=0.0007  <S**2>=0.000
      20 -> 22        -0.47755
      21 -> 22         0.14484
      21 -> 23         0.49642
 This state for optimization and/or second-order correction.
 Total Energy, E(TD-HF/TD-DFT) =  -232.009468045
 Copying the excited state density for this state as the 1-particle RhoCI density.

 The electronic state is 1-A.
 Alpha  occ. eigenvalues --  -10.21684 -10.21147 -10.20906 -10.19699 -10.19615
 Alpha  occ. eigenvalues --  -10.19330  -0.82583  -0.73669  -0.71859  -0.60167
 Alpha  occ. eigenvalues --   -0.57881  -0.50265  -0.47096  -0.41834  -0.41372
 Alpha  occ. eigenvalues --   -0.40411  -0.35987  -0.34089  -0.31688  -0.24340
 Alpha  occ. eigenvalues --   -0.22753
 Alpha virt. eigenvalues --   -0.02543  -0.00984   0.07576   0.11576   0.13158
 Alpha virt. eigenvalues --    0.13982   0.15670   0.16659   0.18744   0.25631
 Alpha virt. eigenvalues --    0.27116   0.30129   0.30737   0.43518   0.45608

 Mulliken charges:
               1
     1  C   -0.083421
     2  C   -0.086374
     3  C   -0.090611
     4  C   -0.102944
     5  C   -0.106083
     6  C   -0.090434
     7  H    0.083807
     8  H    0.102295
     9  H    0.085118
    10  H    0.101901
    11  H    0.088686
    12  H    0.098060
 Sum of Mulliken charges =  -0.00000

 Dipole moment (field-independent basis, Debye):
    X=              0.0594    Y=             -0.3416    Z=             -0.0413  Tot=              0.3492
 Quadrupole moment (field-independent basis, Debye-Ang):
   XX=            -31.4385   YY=            -31.7994   ZZ=            -38.8731
   XY=              0.1893   XZ=             -0.1888   YZ=              0.0134

 Normal termination of Gaussian 16 at Fri Nov 10 21:35:34 2023.
