 Gaussian 16, Revision B.01,
 Gaussian 16:  EM64L-G16RevB.01 20-Dec-2017

 ---------------------------------
 # TD=(NStates=1) B3LYP/6-31G(d,p)
 ---------------------------------

 -------
 EMISPCT
 -------
 Symbolic Z-matrix:
 Charge =  0 Multiplicity = 1

                         Standard orientation:
 ---------------------------------------------------------------------
 Center     Atomic      Atomic             Coordinates (Angstroms)
 Number     Number       Type             X           Y           Z
 ---------------------------------------------------------------------
      1          6           0        1.394048    0.335586   -0.019781
      2          6           0        1.051034   -1.004567    0.095945
      3          6           0       -0.381776   -1.387153   -0.032796
      4          6           0       -1.367127   -0.378752   -0.036658
      5          6           0       -1.088858    1.016083    0.047111
      6          6           0        0.372132    1.395987   -0.046670
      7          1           0        2.533103    0.730107   -0.137002
      8          1           0        0.645426    2.382506   -0.147538
      9          1           0       -1.627398    1.862848    0.355817
     10          1           0       -2.426666   -0.691087   -0.114905
     11          1           0       -0.835928   -2.374677   -0.126466
     12          1           0        1.834742   -1.772804    0.127180
 ---------------------------------------------------------------------

 SCF Done:  E(RB3LYP) =  -232.208572083     A.U. after   13 cycles

 Excitation energies and oscillator strengths:

 Excited State   1:      Singlet-A      4.9739 eV  249.27 nm  f=0.0026  <S**2>=0.000
      20 -> 22         0.49956
      21 -> 22        -0.18311
      21 -> 23        -0.45590
 This state for optimization and/or second-order correction.
 Total Energy, E(TD-HF/TD-DFT) =  -232.025786374
 Copying the excited state density for this state as the 1-particle RhoCI density.

 The electronic state is 1-A.
 Alpha  occ. eigenvalues --  -10.20870 -10.20495 -10.20279 -10.20048 -10.19845
 Alpha  occ. eigenvalues --  -10.19828  -0.82490  -0.73534  -0.72433  -0.60474
 Alpha  occ. eigenvalues --   -0.58176  -0.50455  -0.47399  -0.42892  -0.40913
 Alpha  occ. eigenvalues --   -0.40362  -0.36102  -0.34276  -0.31735  -0.24825
 Alpha  occ. eigenvalues --   -0.23163
 Alpha virt. eigenvalues --   -0.02296   0.00071   0.08582   0.12017   0.13243
 Alpha virt. eigenvalues --    0.15240   0.15810   0.17356   0.18408   0.26131
 Alpha virt. eigenvalues --    0.27221   0.28984   0.31097   0.47001   0.47512

 Mulliken charges:
               1
     1  C   -0.076662
     2  C   -0.099471
     3  C   -0.084406
     4  C   -0.097296
     5  C   -0.086384
     6  C   -0.105224
     7  H    0.080801
     8  H    0.089671
     9  H    0.101800
    10  H    0.086346
    11  H    0.095659
    12  H    0.095166
 Sum of Mulliken charges =  -0.00000

 Dipole moment (field-independent basis, Debye):
    X=             -0.0310    Y=              0.0780    Z=              0.0092  Tot=              0.0844
 Quadrupole moment (field-independent basis, Debye-Ang):
   XX=            -31.8489   YY=            -30.9544   ZZ=            -39.0462
   XY=              0.2577   XZ=             -0.3460   YZ=              0.3591

 Normal termination of Gaussian 16 at Fri Nov 10 22:58:37 2023.
