 Gaussian 16, Revision B.01,
 Gaussian 16:  EM64L-G16RevB.01 20-Dec-2017

 ---------------------------------
 # TD=(NStates=1) B3LYP/6-31G(d,p)
 ---------------------------------

 -------
 EMISPCT
 -------
 Symbolic Z-matrix:
 Charge =  0 Multiplicity = 1

                         Standard orientation:
 ---------------------------------------------------------------------
 Center     Atomic      Atomic             Coordinates (Angstroms)
 Number     Number       Type             X           Y           Z
 ---------------------------------------------------------------------
      1          6           0        1.110089    0.917814   -0.056178
      2          6           0        1.431922   -0.472845    0.058449
      3          6           0        0.215937   -1.333203   -0.086260
      4          6           0       -1.065114   -0.935004    0.081482
      5          6           0       -1.440674    0.479040   -0.086363
      6          6           0       -0.269197    1.354328    0.079842
      7          1           0        1.873318    1.692537   -0.306885
      8          1           0       -0.422090    2.383300    0.310368
      9          1           0       -2.492032    0.794141   -0.207704
     10          1           0       -1.774717   -1.819766    0.186667
     11          1           0        0.603127   -2.229157   -0.140521
     12          1           0        2.314622   -0.881830    0.212240
 ---------------------------------------------------------------------

 SCF Done:  E(RB3LYP) =  -232.174907219     A.U. after   14 cycles

 Excitation energies and oscillator strengths:

 Excited State   1:      Singlet-A      4.5395 eV  273.12 nm  f=0.0079  <S**2>=0.000
      20 -> 22         0.40809
      20 -> 23         0.24200
      21 -> 22         0.43828
      21 -> 23        -0.28468
 This state for optimization and/or second-order correction.
 Total Energy, E(TD-HF/TD-DFT) =  -232.008082613
 Copying the excited state density for this state as the 1-particle RhoCI density.

 The electronic state is 1-A.
 Alpha  occ. eigenvalues --  -10.21086 -10.20140 -10.19979 -10.19814 -10.19052
 Alpha  occ. eigenvalues --  -10.17694  -0.82809  -0.73336  -0.73049  -0.60657
 Alpha  occ. eigenvalues --   -0.58857  -0.50888  -0.48666  -0.42802  -0.41815
 Alpha  occ. eigenvalues --   -0.39813  -0.36710  -0.34034  -0.32458  -0.23264
 Alpha  occ. eigenvalues --   -0.22611
 Alpha virt. eigenvalues --   -0.02395  -0.00232   0.08764   0.12778   0.14417
 Alpha virt. eigenvalues --    0.15154   0.16180   0.17213   0.20551   0.26783
 Alpha virt. eigenvalues --    0.27623   0.29241   0.32773   0.44398   0.46256

 Mulliken charges:
               1
     1  C   -0.087731
     2  C   -0.091434
     3  C   -0.055352
     4  C   -0.091850
     5  C   -0.102281
     6  C   -0.100624
     7  H    0.088959
     8  H    0.090530
     9  H    0.104263
    10  H    0.083175
    11  H    0.073465
    12  H    0.088881
 Sum of Mulliken charges =  -0.00000

 Dipole moment (field-independent basis, Debye):
    X=              0.1357    Y=             -0.0537    Z=              0.0344  Tot=              0.1500
 Quadrupole moment (field-independent basis, Debye-Ang):
   XX=            -30.9183   YY=            -31.8797   ZZ=            -38.6256
   XY=             -0.7059   XZ=              0.0219   YZ=             -0.1327

 Normal termination of Gaussian 16 at Fri Nov 10 21:26:49 2023.
