 Gaussian 16, Revision B.01,
 Gaussian 16:  EM64L-G16RevB.01 20-Dec-2017

 ---------------------------------
 # TD=(NStates=1) B3LYP/6-31G(d,p)
 ---------------------------------

 -------
 EMISPCT
 -------
 Symbolic Z-matrix:
 Charge =  0 Multiplicity = 1

                         Standard orientation:
 ---------------------------------------------------------------------
 Center     Atomic      Atomic             Coordinates (Angstroms)
 Number     Number       Type             X           Y           Z
 ---------------------------------------------------------------------
      1          6           0        0.545353   -1.360862   -0.070043
      2          6           0        1.455265   -0.182162    0.027844
      3          6           0        0.839919    1.117969   -0.077139
      4          6           0       -0.517683    1.305061   -0.035662
      5          6           0       -1.413400    0.175426    0.013133
      6          6           0       -0.879295   -1.106083    0.035848
      7          1           0        0.952862   -2.321697   -0.215476
      8          1           0       -1.607144   -1.784265    0.360365
      9          1           0       -2.588240    0.264893   -0.224164
     10          1           0       -0.924593    2.366008    0.295090
     11          1           0        1.430494    1.966985    0.028869
     12          1           0        2.555666   -0.188025    0.391432
 ---------------------------------------------------------------------

 SCF Done:  E(RB3LYP) =  -232.195840270     A.U. after   13 cycles

 Excitation energies and oscillator strengths:

 Excited State   1:      Singlet-A      4.8083 eV  257.85 nm  f=0.0006  <S**2>=0.000
      20 -> 22         0.51979
      21 -> 23        -0.47290
 This state for optimization and/or second-order correction.
 Total Energy, E(TD-HF/TD-DFT) =  -232.019138414
 Copying the excited state density for this state as the 1-particle RhoCI density.

 The electronic state is 1-A.
 Alpha  occ. eigenvalues --  -10.21259 -10.20656 -10.20115 -10.19922 -10.19215
 Alpha  occ. eigenvalues --  -10.18603  -0.83372  -0.74222  -0.72354  -0.59994
 Alpha  occ. eigenvalues --   -0.58650  -0.50444  -0.46042  -0.43325  -0.41292
 Alpha  occ. eigenvalues --   -0.40342  -0.35563  -0.34152  -0.33213  -0.24345
 Alpha  occ. eigenvalues --   -0.22999
 Alpha virt. eigenvalues --   -0.02307  -0.00413   0.06803   0.12498   0.13637
 Alpha virt. eigenvalues --    0.14148   0.16043   0.17606   0.18916   0.26776
 Alpha virt. eigenvalues --    0.28786   0.29218   0.31985   0.47267   0.47647

 Mulliken charges:
               1
     1  C   -0.108176
     2  C   -0.103356
     3  C   -0.072459
     4  C   -0.086725
     5  C   -0.106102
     6  C   -0.071975
     7  H    0.097865
     8  H    0.095863
     9  H    0.087063
    10  H    0.083675
    11  H    0.084423
    12  H    0.099903
 Sum of Mulliken charges =  -0.00000

 Dipole moment (field-independent basis, Debye):
    X=              0.1042    Y=             -0.0677    Z=              0.3921  Tot=              0.4113
 Quadrupole moment (field-independent basis, Debye-Ang):
   XX=            -31.5287   YY=            -32.1720   ZZ=            -38.6254
   XY=              0.3359   XZ=              0.4843   YZ=              0.4191

 Normal termination of Gaussian 16 at Fri Nov 10 19:39:01 2023.
