 Gaussian 16, Revision B.01,
 Gaussian 16:  EM64L-G16RevB.01 20-Dec-2017

 ---------------------------------
 # TD=(NStates=1) B3LYP/6-31G(d,p)
 ---------------------------------

 -------
 EMISPCT
 -------
 Symbolic Z-matrix:
 Charge =  0 Multiplicity = 1

                         Standard orientation:
 ---------------------------------------------------------------------
 Center     Atomic      Atomic             Coordinates (Angstroms)
 Number     Number       Type             X           Y           Z
 ---------------------------------------------------------------------
      1          6           0       -0.986049   -1.035481   -0.031602
      2          6           0       -1.412704    0.330991    0.059279
      3          6           0       -0.425476    1.346925   -0.002178
      4          6           0        0.946919    1.011536   -0.014848
      5          6           0        1.413903   -0.311360    0.029682
      6          6           0        0.406281   -1.388414   -0.037088
      7          1           0       -1.695808   -1.886771    0.120735
      8          1           0        0.836757   -2.274299    0.028310
      9          1           0        2.603164   -0.355809   -0.126831
     10          1           0        1.779934    1.726415    0.262608
     11          1           0       -0.616423    2.471460   -0.258556
     12          1           0       -2.564867    0.593820   -0.045738
 ---------------------------------------------------------------------

 SCF Done:  E(RB3LYP) =  -232.201255700     A.U. after   13 cycles

 Excitation energies and oscillator strengths:

 Excited State   1:      Singlet-A      5.0968 eV  243.26 nm  f=0.0002  <S**2>=0.000
      20 -> 22        -0.47481
      20 -> 23         0.12793
      21 -> 22         0.15635
      21 -> 23         0.48299
 This state for optimization and/or second-order correction.
 Total Energy, E(TD-HF/TD-DFT) =  -232.013953501
 Copying the excited state density for this state as the 1-particle RhoCI density.

 The electronic state is 1-A.
 Alpha  occ. eigenvalues --  -10.21154 -10.20690 -10.20516 -10.20471 -10.19545
 Alpha  occ. eigenvalues --  -10.19287  -0.83395  -0.73446  -0.73181  -0.60215
 Alpha  occ. eigenvalues --   -0.58314  -0.50405  -0.45373  -0.43443  -0.40929
 Alpha  occ. eigenvalues --   -0.40424  -0.35887  -0.33726  -0.32159  -0.24727
 Alpha  occ. eigenvalues --   -0.24217
 Alpha virt. eigenvalues --   -0.01457  -0.00898   0.07289   0.10974   0.12915
 Alpha virt. eigenvalues --    0.15123   0.15213   0.17046   0.17841   0.27093
 Alpha virt. eigenvalues --    0.28460   0.29617   0.30939   0.47219   0.47976

 Mulliken charges:
               1
     1  C   -0.095613
     2  C   -0.093682
     3  C   -0.089336
     4  C   -0.080263
     5  C   -0.100617
     6  C   -0.077940
     7  H    0.093633
     8  H    0.088051
     9  H    0.087848
    10  H    0.085471
    11  H    0.090718
    12  H    0.091730
 Sum of Mulliken charges =  -0.00000

 Dipole moment (field-independent basis, Debye):
    X=              0.0922    Y=             -0.0787    Z=             -0.0134  Tot=              0.1220
 Quadrupole moment (field-independent basis, Debye-Ang):
   XX=            -31.3837   YY=            -32.1714   ZZ=            -39.0330
   XY=              0.0985   XZ=              0.1827   YZ=             -0.4243

 Normal termination of Gaussian 16 at Fri Nov 10 22:18:06 2023.
