 Gaussian 16, Revision B.01,
 Gaussian 16:  EM64L-G16RevB.01 20-Dec-2017

 ---------------------------------
 # TD=(NStates=1) B3LYP/6-31G(d,p)
 ---------------------------------

 -------
 EMISPCT
 -------
 Symbolic Z-matrix:
 Charge =  0 Multiplicity = 1

                         Standard orientation:
 ---------------------------------------------------------------------
 Center     Atomic      Atomic             Coordinates (Angstroms)
 Number     Number       Type             X           Y           Z
 ---------------------------------------------------------------------
      1          6           0        0.999155   -1.113777   -0.126927
      2          6           0        1.429531    0.286500    0.094917
      3          6           0        0.459181    1.359120    0.009592
      4          6           0       -1.034281    1.065734   -0.095171
      5          6           0       -1.475273   -0.313836    0.005036
      6          6           0       -0.439383   -1.331240   -0.018709
      7          1           0        1.619612   -1.811608   -0.011808
      8          1           0       -0.588860   -2.329180    0.154894
      9          1           0       -2.483075   -0.688114    0.485819
     10          1           0       -1.503713    2.032021   -0.073654
     11          1           0        0.851024    2.410460    0.026673
     12          1           0        2.471428    0.671421    0.205641
 ---------------------------------------------------------------------

 SCF Done:  E(RB3LYP) =  -232.173536058     A.U. after   14 cycles

 Excitation energies and oscillator strengths:

 Excited State   1:      Singlet-A      4.7255 eV  262.37 nm  f=0.0057  <S**2>=0.000
      20 -> 22        -0.36042
      20 -> 23         0.30684
      21 -> 22         0.42974
      21 -> 23         0.30172
 This state for optimization and/or second-order correction.
 Total Energy, E(TD-HF/TD-DFT) =  -231.999875545
 Copying the excited state density for this state as the 1-particle RhoCI density.

 The electronic state is 1-A.
 Alpha  occ. eigenvalues --  -10.21698 -10.21209 -10.20585 -10.20503 -10.19709
 Alpha  occ. eigenvalues --  -10.19200  -0.81782  -0.73056  -0.72531  -0.60739
 Alpha  occ. eigenvalues --   -0.58597  -0.50407  -0.47790  -0.43242  -0.40950
 Alpha  occ. eigenvalues --   -0.40163  -0.34799  -0.34117  -0.32277  -0.24068
 Alpha  occ. eigenvalues --   -0.23440
 Alpha virt. eigenvalues --   -0.02552  -0.00967   0.08819   0.10751   0.13637
 Alpha virt. eigenvalues --    0.14442   0.15982   0.17791   0.19581   0.25556
 Alpha virt. eigenvalues --    0.27013   0.28504   0.29147   0.45101   0.46981

 Mulliken charges:
               1
     1  C   -0.066652
     2  C   -0.090057
     3  C   -0.106551
     4  C   -0.091475
     5  C   -0.103856
     6  C   -0.089767
     7  H    0.078897
     8  H    0.089710
     9  H    0.100163
    10  H    0.100549
    11  H    0.091656
    12  H    0.087384
 Sum of Mulliken charges =  -0.00000

 Dipole moment (field-independent basis, Debye):
    X=              0.2315    Y=              0.0069    Z=              0.5062  Tot=              0.5566
 Quadrupole moment (field-independent basis, Debye-Ang):
   XX=            -32.2882   YY=            -30.5909   ZZ=            -39.0276
   XY=              0.0812   XZ=             -0.5819   YZ=             -0.5868

 Normal termination of Gaussian 16 at Fri Nov 10 19:53:35 2023.
