 Gaussian 16, Revision B.01,
 Gaussian 16:  EM64L-G16RevB.01 20-Dec-2017

 ---------------------------------
 # TD=(NStates=1) B3LYP/6-31G(d,p)
 ---------------------------------

 -------
 EMISPCT
 -------
 Symbolic Z-matrix:
 Charge =  0 Multiplicity = 1

                         Standard orientation:
 ---------------------------------------------------------------------
 Center     Atomic      Atomic             Coordinates (Angstroms)
 Number     Number       Type             X           Y           Z
 ---------------------------------------------------------------------
      1          6           0       -0.269572   -1.423860    0.049601
      2          6           0        1.099892   -0.877300   -0.152463
      3          6           0        1.319522    0.471367    0.115472
      4          6           0        0.257099    1.376116   -0.007427
      5          6           0       -1.085157    0.928521   -0.114696
      6          6           0       -1.332307   -0.517525    0.049802
      7          1           0       -0.452192   -2.449679    0.067367
      8          1           0       -2.330483   -0.612826    0.207961
      9          1           0       -1.970201    1.606199    0.055056
     10          1           0        0.466186    2.510688   -0.107719
     11          1           0        2.515277    0.680389    0.381920
     12          1           0        1.834543   -1.478685   -0.246310
 ---------------------------------------------------------------------

 SCF Done:  E(RB3LYP) =  -232.186746982     A.U. after   13 cycles

 Excitation energies and oscillator strengths:

 Excited State   1:      Singlet-A      5.0302 eV  246.48 nm  f=0.0012  <S**2>=0.000
      20 -> 22         0.53255
      21 -> 23         0.46466
 This state for optimization and/or second-order correction.
 Total Energy, E(TD-HF/TD-DFT) =  -232.001889136
 Copying the excited state density for this state as the 1-particle RhoCI density.

 The electronic state is 1-A.
 Alpha  occ. eigenvalues --  -10.20626 -10.20229 -10.19858 -10.19607 -10.18770
 Alpha  occ. eigenvalues --  -10.18560  -0.83576  -0.73917  -0.73229  -0.60659
 Alpha  occ. eigenvalues --   -0.58971  -0.51194  -0.46736  -0.43737  -0.41191
 Alpha  occ. eigenvalues --   -0.40423  -0.35883  -0.35107  -0.31678  -0.24440
 Alpha  occ. eigenvalues --   -0.23619
 Alpha virt. eigenvalues --   -0.01735  -0.00097   0.07317   0.12833   0.13276
 Alpha virt. eigenvalues --    0.14775   0.16128   0.19228   0.19346   0.26365
 Alpha virt. eigenvalues --    0.29480   0.30090   0.32311   0.46591   0.48255

 Mulliken charges:
               1
     1  C   -0.096555
     2  C   -0.063205
     3  C   -0.076743
     4  C   -0.096359
     5  C   -0.106586
     6  C   -0.068701
     7  H    0.090716
     8  H    0.084302
     9  H    0.092101
    10  H    0.086063
    11  H    0.080414
    12  H    0.074553
 Sum of Mulliken charges =  -0.00000

 Dipole moment (field-independent basis, Debye):
    X=              0.0267    Y=             -0.1677    Z=              0.2134  Tot=              0.2727
 Quadrupole moment (field-independent basis, Debye-Ang):
   XX=            -31.1382   YY=            -32.0781   ZZ=            -38.6833
   XY=             -0.7518   XZ=             -0.3302   YZ=              0.1370

 Normal termination of Gaussian 16 at Fri Nov 10 21:57:24 2023.
