 Gaussian 16, Revision B.01,
 Gaussian 16:  EM64L-G16RevB.01 20-Dec-2017

 ---------------------------------
 # TD=(NStates=1) B3LYP/6-31G(d,p)
 ---------------------------------

 -------
 EMISPCT
 -------
 Symbolic Z-matrix:
 Charge =  0 Multiplicity = 1

                         Standard orientation:
 ---------------------------------------------------------------------
 Center     Atomic      Atomic             Coordinates (Angstroms)
 Number     Number       Type             X           Y           Z
 ---------------------------------------------------------------------
      1          6           0        0.711560   -1.233911   -0.050357
      2          6           0       -0.716651   -1.231338    0.124128
      3          6           0       -1.412059   -0.005144   -0.026692
      4          6           0       -0.712117    1.232212   -0.057801
      5          6           0        0.704081    1.160616   -0.042247
      6          6           0        1.463164    0.025405    0.015444
      7          1           0        1.068774   -2.096590   -0.004214
      8          1           0        2.464207    0.015628    0.008476
      9          1           0        1.175928    2.111572    0.108206
     10          1           0       -1.195320    2.206568    0.419026
     11          1           0       -2.427852    0.091778   -0.245310
     12          1           0       -1.313602   -2.015999   -0.061040
 ---------------------------------------------------------------------

 SCF Done:  E(RB3LYP) =  -232.182493653     A.U. after   13 cycles

 Excitation energies and oscillator strengths:

 Excited State   1:      Singlet-A      5.0220 eV  246.88 nm  f=0.0003  <S**2>=0.000
      20 -> 22         0.50180
      21 -> 23        -0.49115
 This state for optimization and/or second-order correction.
 Total Energy, E(TD-HF/TD-DFT) =  -231.997938182
 Copying the excited state density for this state as the 1-particle RhoCI density.

 The electronic state is 1-A.
 Alpha  occ. eigenvalues --  -10.19516 -10.18874 -10.18783 -10.18716 -10.18537
 Alpha  occ. eigenvalues --  -10.18453  -0.83860  -0.74589  -0.73609  -0.61192
 Alpha  occ. eigenvalues --   -0.59917  -0.52137  -0.47771  -0.42879  -0.42412
 Alpha  occ. eigenvalues --   -0.41110  -0.36672  -0.33342  -0.32920  -0.25021
 Alpha  occ. eigenvalues --   -0.23449
 Alpha virt. eigenvalues --   -0.02156  -0.00226   0.09507   0.13118   0.15225
 Alpha virt. eigenvalues --    0.16451   0.18498   0.18896   0.20060   0.27959
 Alpha virt. eigenvalues --    0.29416   0.30209   0.31990   0.45652   0.48649

 Mulliken charges:
               1
     1  C   -0.076842
     2  C   -0.083750
     3  C   -0.094012
     4  C   -0.104661
     5  C   -0.081429
     6  C   -0.058736
     7  H    0.072090
     8  H    0.084616
     9  H    0.077881
    10  H    0.089254
    11  H    0.088607
    12  H    0.086979
 Sum of Mulliken charges =  -0.00000

 Dipole moment (field-independent basis, Debye):
    X=              0.1161    Y=             -0.1640    Z=              0.1147  Tot=              0.2314
 Quadrupole moment (field-independent basis, Debye-Ang):
   XX=            -31.4187   YY=            -31.9396   ZZ=            -38.1982
   XY=              0.0510   XZ=              0.2588   YZ=              1.0894

 Normal termination of Gaussian 16 at Fri Nov 10 20:38:29 2023.
