 Gaussian 16, Revision B.01,
 Gaussian 16:  EM64L-G16RevB.01 20-Dec-2017

 ---------------------------------
 # TD=(NStates=1) B3LYP/6-31G(d,p)
 ---------------------------------

 -------
 EMISPCT
 -------
 Symbolic Z-matrix:
 Charge =  0 Multiplicity = 1

                         Standard orientation:
 ---------------------------------------------------------------------
 Center     Atomic      Atomic             Coordinates (Angstroms)
 Number     Number       Type             X           Y           Z
 ---------------------------------------------------------------------
      1          6           0        1.274758   -0.561206   -0.001379
      2          6           0        1.202222    0.806150   -0.052562
      3          6           0       -0.133414    1.338276   -0.010470
      4          6           0       -1.329925    0.612806   -0.024448
      5          6           0       -1.156704   -0.806749    0.027746
      6          6           0        0.090521   -1.385593    0.018375
      7          1           0        2.271607   -1.283907    0.064080
      8          1           0        0.441101   -2.390011    0.137232
      9          1           0       -1.983579   -1.488915   -0.167853
     10          1           0       -2.327092    1.001451   -0.089785
     11          1           0       -0.093609    2.555122    0.479340
     12          1           0        2.006823    1.584165   -0.166583
 ---------------------------------------------------------------------

 SCF Done:  E(RB3LYP) =  -232.191765463     A.U. after   13 cycles

 Excitation energies and oscillator strengths:

 Excited State   1:      Singlet-A      5.2233 eV  237.37 nm  f=0.0010  <S**2>=0.000
      20 -> 22        -0.45667
      21 -> 22         0.16039
      21 -> 23         0.50547
 This state for optimization and/or second-order correction.
 Total Energy, E(TD-HF/TD-DFT) =  -231.999812201
 Copying the excited state density for this state as the 1-particle RhoCI density.

 The electronic state is 1-A.
 Alpha  occ. eigenvalues --  -10.21355 -10.20612 -10.20175 -10.19874 -10.19542
 Alpha  occ. eigenvalues --  -10.18972  -0.84546  -0.74390  -0.73354  -0.60139
 Alpha  occ. eigenvalues --   -0.58499  -0.51395  -0.44561  -0.43726  -0.42156
 Alpha  occ. eigenvalues --   -0.40103  -0.36856  -0.32981  -0.31599  -0.25379
 Alpha  occ. eigenvalues --   -0.24107
 Alpha virt. eigenvalues --   -0.01277  -0.00543   0.06267   0.10147   0.13021
 Alpha virt. eigenvalues --    0.15013   0.15500   0.17465   0.18383   0.26074
 Alpha virt. eigenvalues --    0.27994   0.32454   0.33595   0.45015   0.49078

 Mulliken charges:
               1
     1  C   -0.092725
     2  C   -0.076833
     3  C   -0.094894
     4  C   -0.079231
     5  C   -0.105125
     6  C   -0.057718
     7  H    0.069694
     8  H    0.090975
     9  H    0.088099
    10  H    0.101594
    11  H    0.053432
    12  H    0.102734
 Sum of Mulliken charges =  -0.00000

 Dipole moment (field-independent basis, Debye):
    X=             -0.0154    Y=             -0.2282    Z=              0.0607  Tot=              0.2367
 Quadrupole moment (field-independent basis, Debye-Ang):
   XX=            -31.8472   YY=            -32.4893   ZZ=            -38.7774
   XY=              0.0451   XZ=              0.3310   YZ=              0.3322

 Normal termination of Gaussian 16 at Fri Nov 10 21:45:48 2023.
