 Gaussian 16, Revision B.01,
 Gaussian 16:  EM64L-G16RevB.01 20-Dec-2017

 ---------------------------------
 # TD=(NStates=1) B3LYP/6-31G(d,p)
 ---------------------------------

 -------
 EMISPCT
 -------
 Symbolic Z-matrix:
 Charge =  0 Multiplicity = 1

                         Standard orientation:
 ---------------------------------------------------------------------
 Center     Atomic      Atomic             Coordinates (Angstroms)
 Number     Number       Type             X           Y           Z
 ---------------------------------------------------------------------
      1          6           0       -0.063829    1.392026   -0.058348
      2          6           0       -1.322941    0.652141   -0.026269
      3          6           0       -1.266574   -0.809516   -0.036050
      4          6           0        0.097678   -1.365512   -0.107870
      5          6           0        1.321955   -0.616667    0.036503
      6          6           0        1.222723    0.738222    0.022614
      7          1           0       -0.149737    2.515666    0.147708
      8          1           0        2.078669    1.346121   -0.092607
      9          1           0        2.233617   -1.138137    0.260282
     10          1           0        0.209553   -2.383755    0.103114
     11          1           0       -2.096492   -1.537940    0.318288
     12          1           0       -2.209680    1.253878    0.279729
 ---------------------------------------------------------------------

 SCF Done:  E(RB3LYP) =  -232.212555814     A.U. after   13 cycles

 Excitation energies and oscillator strengths:

 Excited State   1:      Singlet-A      4.9397 eV  250.99 nm  f=0.0009  <S**2>=0.000
      20 -> 22         0.46870
      20 -> 23        -0.10355
      21 -> 22         0.13977
      21 -> 23         0.49976
 This state for optimization and/or second-order correction.
 Total Energy, E(TD-HF/TD-DFT) =  -232.031024660
 Copying the excited state density for this state as the 1-particle RhoCI density.

 The electronic state is 1-A.
 Alpha  occ. eigenvalues --  -10.21536 -10.20766 -10.20397 -10.19467 -10.19188
 Alpha  occ. eigenvalues --  -10.18945  -0.83026  -0.73814  -0.72307  -0.59416
 Alpha  occ. eigenvalues --   -0.59077  -0.50747  -0.46357  -0.43073  -0.42088
 Alpha  occ. eigenvalues --   -0.39655  -0.35176  -0.33999  -0.33283  -0.24732
 Alpha  occ. eigenvalues --   -0.23435
 Alpha virt. eigenvalues --   -0.01782  -0.00934   0.08243   0.12148   0.13533
 Alpha virt. eigenvalues --    0.14268   0.16884   0.17466   0.19598   0.26207
 Alpha virt. eigenvalues --    0.28441   0.29328   0.30898   0.47340   0.47963

 Mulliken charges:
               1
     1  C   -0.098209
     2  C   -0.098837
     3  C   -0.101368
     4  C   -0.098752
     5  C   -0.075740
     6  C   -0.077761
     7  H    0.086132
     8  H    0.088880
     9  H    0.095760
    10  H    0.082220
    11  H    0.102884
    12  H    0.094792
 Sum of Mulliken charges =  -0.00000

 Dipole moment (field-independent basis, Debye):
    X=              0.1545    Y=             -0.0642    Z=              0.6629  Tot=              0.6836
 Quadrupole moment (field-independent basis, Debye-Ang):
   XX=            -31.5628   YY=            -31.7880   ZZ=            -38.8048
   XY=             -0.1323   XZ=             -0.7777   YZ=             -0.4111

 Normal termination of Gaussian 16 at Fri Nov 10 23:02:30 2023.
