 Gaussian 16, Revision B.01,
 Gaussian 16:  EM64L-G16RevB.01 20-Dec-2017

 ---------------------------------
 # TD=(NStates=1) B3LYP/6-31G(d,p)
 ---------------------------------

 -------
 EMISPCT
 -------
 Symbolic Z-matrix:
 Charge =  0 Multiplicity = 1

                         Standard orientation:
 ---------------------------------------------------------------------
 Center     Atomic      Atomic             Coordinates (Angstroms)
 Number     Number       Type             X           Y           Z
 ---------------------------------------------------------------------
      1          6           0        0.449865   -1.363156   -0.029248
      2          6           0        1.464217   -0.338867   -0.014724
      3          6           0        0.965990    1.079886   -0.029733
      4          6           0       -0.440874    1.352338    0.005166
      5          6           0       -1.436014    0.283885    0.011655
      6          6           0       -1.036408   -1.026768    0.043759
      7          1           0        0.927834   -2.460866    0.065692
      8          1           0       -1.720038   -2.005618   -0.015776
      9          1           0       -2.397915    0.568201   -0.314920
     10          1           0       -0.732313    2.533280    0.326017
     11          1           0        1.687537    1.902951   -0.159606
     12          1           0        2.434246   -0.461855    0.177339
 ---------------------------------------------------------------------

 SCF Done:  E(RB3LYP) =  -232.179745573     A.U. after   13 cycles

 Excitation energies and oscillator strengths:

 Excited State   1:      Singlet-A      4.8537 eV  255.44 nm  f=0.0009  <S**2>=0.000
      20 -> 22         0.45736
      20 -> 23        -0.15356
      21 -> 22         0.17976
      21 -> 23         0.48425
 This state for optimization and/or second-order correction.
 Total Energy, E(TD-HF/TD-DFT) =  -232.001373545
 Copying the excited state density for this state as the 1-particle RhoCI density.

 The electronic state is 1-A.
 Alpha  occ. eigenvalues --  -10.21767 -10.21647 -10.21518 -10.20531 -10.19849
 Alpha  occ. eigenvalues --  -10.19834  -0.82352  -0.73919  -0.71553  -0.59707
 Alpha  occ. eigenvalues --   -0.58273  -0.49521  -0.47007  -0.42948  -0.41677
 Alpha  occ. eigenvalues --   -0.38857  -0.35106  -0.34031  -0.32203  -0.24487
 Alpha  occ. eigenvalues --   -0.23541
 Alpha virt. eigenvalues --   -0.01875  -0.01390   0.06833   0.10651   0.12984
 Alpha virt. eigenvalues --    0.13409   0.14630   0.16704   0.18066   0.24874
 Alpha virt. eigenvalues --    0.27085   0.28890   0.30694   0.45259   0.48112

 Mulliken charges:
               1
     1  C   -0.105792
     2  C   -0.071023
     3  C   -0.095765
     4  C   -0.096080
     5  C   -0.090116
     6  C   -0.087275
     7  H    0.082845
     8  H    0.092849
     9  H    0.105014
    10  H    0.078094
    11  H    0.093204
    12  H    0.094046
 Sum of Mulliken charges =  -0.00000

 Dipole moment (field-independent basis, Debye):
    X=              0.2007    Y=              0.0058    Z=              0.0272  Tot=              0.2026
 Quadrupole moment (field-independent basis, Debye-Ang):
   XX=            -31.2916   YY=            -32.0518   ZZ=            -39.2123
   XY=              0.1558   XZ=              0.7507   YZ=              0.0553

 Normal termination of Gaussian 16 at Fri Nov 10 21:29:54 2023.
