 Gaussian 16, Revision B.01,
 Gaussian 16:  EM64L-G16RevB.01 20-Dec-2017

 ---------------------------------
 # TD=(NStates=1) B3LYP/6-31G(d,p)
 ---------------------------------

 -------
 EMISPCT
 -------
 Symbolic Z-matrix:
 Charge =  0 Multiplicity = 1

                         Standard orientation:
 ---------------------------------------------------------------------
 Center     Atomic      Atomic             Coordinates (Angstroms)
 Number     Number       Type             X           Y           Z
 ---------------------------------------------------------------------
      1          6           0        1.121567   -0.909541    0.034061
      2          6           0       -0.220380   -1.373515   -0.021110
      3          6           0       -1.351978   -0.527577    0.050156
      4          6           0       -1.138940    0.927508    0.045397
      5          6           0        0.254417    1.364740   -0.062201
      6          6           0        1.325226    0.501131   -0.059639
      7          1           0        1.926774   -1.511585    0.128468
      8          1           0        2.361369    0.849751    0.242863
      9          1           0        0.440081    2.381077   -0.011187
     10          1           0       -1.850376    1.688212    0.005555
     11          1           0       -2.347805   -0.918814   -0.047477
     12          1           0       -0.469513   -2.385114   -0.238205
 ---------------------------------------------------------------------

 SCF Done:  E(RB3LYP) =  -232.225271948     A.U. after   13 cycles

 Excitation energies and oscillator strengths:

 Excited State   1:      Singlet-A      5.0977 eV  243.21 nm  f=0.0016  <S**2>=0.000
      20 -> 22         0.47626
      20 -> 23        -0.14279
      21 -> 22        -0.20914
      21 -> 23        -0.45682
 This state for optimization and/or second-order correction.
 Total Energy, E(TD-HF/TD-DFT) =  -232.037933522
 Copying the excited state density for this state as the 1-particle RhoCI density.

 The electronic state is 1-A.
 Alpha  occ. eigenvalues --  -10.19900 -10.19861 -10.19193 -10.19092 -10.18759
 Alpha  occ. eigenvalues --  -10.18602  -0.83334  -0.73858  -0.73241  -0.60873
 Alpha  occ. eigenvalues --   -0.58936  -0.51628  -0.47430  -0.43124  -0.41670
 Alpha  occ. eigenvalues --   -0.41372  -0.35522  -0.35039  -0.32482  -0.24667
 Alpha  occ. eigenvalues --   -0.23645
 Alpha virt. eigenvalues --   -0.01516  -0.00122   0.10184   0.13130   0.14738
 Alpha virt. eigenvalues --    0.15649   0.18072   0.18179   0.19844   0.28249
 Alpha virt. eigenvalues --    0.28520   0.29103   0.31981   0.47500   0.50359

 Mulliken charges:
               1
     1  C   -0.076109
     2  C   -0.083620
     3  C   -0.096949
     4  C   -0.087282
     5  C   -0.084214
     6  C   -0.092135
     7  H    0.085765
     8  H    0.084799
     9  H    0.082187
    10  H    0.090702
    11  H    0.092422
    12  H    0.084435
 Sum of Mulliken charges =  -0.00000

 Dipole moment (field-independent basis, Debye):
    X=             -0.0703    Y=              0.0172    Z=              0.0489  Tot=              0.0874
 Quadrupole moment (field-independent basis, Debye-Ang):
   XX=            -31.2410   YY=            -31.5776   ZZ=            -38.6008
   XY=             -0.2449   XZ=              0.8796   YZ=              0.4850

 Normal termination of Gaussian 16 at Fri Nov 10 22:20:40 2023.
