 Gaussian 16, Revision B.01,
 Gaussian 16:  EM64L-G16RevB.01 20-Dec-2017

 ---------------------------------
 # TD=(NStates=1) B3LYP/6-31G(d,p)
 ---------------------------------

 -------
 EMISPCT
 -------
 Symbolic Z-matrix:
 Charge =  0 Multiplicity = 1

                         Standard orientation:
 ---------------------------------------------------------------------
 Center     Atomic      Atomic             Coordinates (Angstroms)
 Number     Number       Type             X           Y           Z
 ---------------------------------------------------------------------
      1          6           0       -1.226092    0.800758   -0.082502
      2          6           0       -1.296657   -0.638733   -0.005370
      3          6           0       -0.083582   -1.406611    0.047936
      4          6           0        1.218872   -0.831870   -0.004490
      5          6           0        1.308442    0.614282   -0.079450
      6          6           0        0.126642    1.389078    0.012736
      7          1           0       -2.198139    1.437031    0.010270
      8          1           0        0.135655    2.431973    0.511887
      9          1           0        2.276167    1.252905    0.087336
     10          1           0        2.208287   -1.247451   -0.136712
     11          1           0       -0.365464   -2.475814    0.269625
     12          1           0       -2.342258   -0.960069   -0.075571
 ---------------------------------------------------------------------

 SCF Done:  E(RB3LYP) =  -232.202866352     A.U. after   13 cycles

 Excitation energies and oscillator strengths:

 Excited State   1:      Singlet-A      4.9392 eV  251.02 nm  f=0.0017  <S**2>=0.000
      20 -> 22         0.42168
      20 -> 23         0.22609
      21 -> 22         0.30461
      21 -> 23        -0.42167
 This state for optimization and/or second-order correction.
 Total Energy, E(TD-HF/TD-DFT) =  -232.021353426
 Copying the excited state density for this state as the 1-particle RhoCI density.

 The electronic state is 1-A.
 Alpha  occ. eigenvalues --  -10.20895 -10.20777 -10.20712 -10.20546 -10.20211
 Alpha  occ. eigenvalues --  -10.20137  -0.82852  -0.73404  -0.72468  -0.59769
 Alpha  occ. eigenvalues --   -0.58290  -0.49929  -0.45359  -0.44148  -0.40590
 Alpha  occ. eigenvalues --   -0.40151  -0.35480  -0.34277  -0.31429  -0.24515
 Alpha  occ. eigenvalues --   -0.23761
 Alpha virt. eigenvalues --   -0.01786  -0.00974   0.07811   0.11147   0.12532
 Alpha virt. eigenvalues --    0.14009   0.14722   0.17177   0.17687   0.26999
 Alpha virt. eigenvalues --    0.27870   0.28674   0.30810   0.47604   0.48700

 Mulliken charges:
               1
     1  C   -0.100924
     2  C   -0.083880
     3  C   -0.098238
     4  C   -0.088195
     5  C   -0.104175
     6  C   -0.089664
     7  H    0.090306
     8  H    0.086926
     9  H    0.092092
    10  H    0.104988
    11  H    0.093078
    12  H    0.097686
 Sum of Mulliken charges =  -0.00000

 Dipole moment (field-independent basis, Debye):
    X=             -0.1302    Y=             -0.0081    Z=              0.3884  Tot=              0.4097
 Quadrupole moment (field-independent basis, Debye-Ang):
   XX=            -30.5998   YY=            -32.9927   ZZ=            -39.0407
   XY=              0.1342   XZ=             -0.0478   YZ=              0.7460

 Normal termination of Gaussian 16 at Fri Nov 10 20:57:22 2023.
