 Gaussian 16, Revision B.01,
 Gaussian 16:  EM64L-G16RevB.01 20-Dec-2017

 ---------------------------------
 # TD=(NStates=1) B3LYP/6-31G(d,p)
 ---------------------------------

 -------
 EMISPCT
 -------
 Symbolic Z-matrix:
 Charge =  0 Multiplicity = 1

                         Standard orientation:
 ---------------------------------------------------------------------
 Center     Atomic      Atomic             Coordinates (Angstroms)
 Number     Number       Type             X           Y           Z
 ---------------------------------------------------------------------
      1          6           0       -0.987338    1.034945    0.080046
      2          6           0        0.358779    1.351149   -0.017300
      3          6           0        1.414919    0.293158    0.029015
      4          6           0        0.988670   -0.983581   -0.057496
      5          6           0       -0.379874   -1.400578   -0.021521
      6          6           0       -1.438681   -0.376617    0.012042
      7          1           0       -1.585439    1.839613   -0.150065
      8          1           0       -2.429283   -0.516672   -0.095554
      9          1           0       -0.682220   -2.326813    0.179455
     10          1           0        1.813701   -1.714760   -0.094955
     11          1           0        2.531451    0.700029    0.249194
     12          1           0        0.612937    2.507745   -0.236791
 ---------------------------------------------------------------------

 SCF Done:  E(RB3LYP) =  -232.190761070     A.U. after   14 cycles

 Excitation energies and oscillator strengths:

 Excited State   1:      Singlet-A      5.0486 eV  245.58 nm  f=0.0011  <S**2>=0.000
      20 -> 22         0.48456
      21 -> 22        -0.12482
      21 -> 23         0.49576
 This state for optimization and/or second-order correction.
 Total Energy, E(TD-HF/TD-DFT) =  -232.005226636
 Copying the excited state density for this state as the 1-particle RhoCI density.

 The electronic state is 1-A.
 Alpha  occ. eigenvalues --  -10.20662 -10.20464 -10.19930 -10.19567 -10.19520
 Alpha  occ. eigenvalues --  -10.18643  -0.83197  -0.74259  -0.72731  -0.60607
 Alpha  occ. eigenvalues --   -0.58703  -0.51002  -0.46477  -0.43212  -0.41846
 Alpha  occ. eigenvalues --   -0.40766  -0.35343  -0.34522  -0.32068  -0.25141
 Alpha  occ. eigenvalues --   -0.23155
 Alpha virt. eigenvalues --   -0.02061   0.00030   0.07590   0.12500   0.13781
 Alpha virt. eigenvalues --    0.14783   0.16850   0.17807   0.19256   0.26528
 Alpha virt. eigenvalues --    0.28329   0.28829   0.32202   0.47018   0.48256

 Mulliken charges:
               1
     1  C   -0.074141
     2  C   -0.100966
     3  C   -0.084090
     4  C   -0.084616
     5  C   -0.083231
     6  C   -0.098984
     7  H    0.085459
     8  H    0.091876
     9  H    0.091407
    10  H    0.087276
    11  H    0.092585
    12  H    0.077425
 Sum of Mulliken charges =  -0.00000

 Dipole moment (field-independent basis, Debye):
    X=             -0.0591    Y=             -0.0305    Z=             -0.0825  Tot=              0.1060
 Quadrupole moment (field-independent basis, Debye-Ang):
   XX=            -31.2864   YY=            -31.8119   ZZ=            -38.7848
   XY=              0.1503   XZ=              0.5687   YZ=             -0.7535

 Normal termination of Gaussian 16 at Fri Nov 10 19:36:41 2023.
