 Gaussian 16, Revision B.01,
 Gaussian 16:  EM64L-G16RevB.01 20-Dec-2017

 ---------------------------------
 # TD=(NStates=1) B3LYP/6-31G(d,p)
 ---------------------------------

 -------
 EMISPCT
 -------
 Symbolic Z-matrix:
 Charge =  0 Multiplicity = 1

                         Standard orientation:
 ---------------------------------------------------------------------
 Center     Atomic      Atomic             Coordinates (Angstroms)
 Number     Number       Type             X           Y           Z
 ---------------------------------------------------------------------
      1          6           0       -0.891269   -1.090823   -0.146166
      2          6           0       -1.458403    0.136608    0.011605
      3          6           0       -0.573327    1.243584    0.045359
      4          6           0        0.870264    1.138526   -0.054282
      5          6           0        1.498710   -0.176379    0.057509
      6          6           0        0.586750   -1.236890    0.035357
      7          1           0       -1.453525   -2.000937    0.254995
      8          1           0        0.890493   -2.291120   -0.092636
      9          1           0        2.494818   -0.442313    0.063683
     10          1           0        1.581753    2.083286   -0.054502
     11          1           0       -1.146635    2.220855   -0.115048
     12          1           0       -2.563262    0.342479    0.247217
 ---------------------------------------------------------------------

 SCF Done:  E(RB3LYP) =  -232.203496315     A.U. after   13 cycles

 Excitation energies and oscillator strengths:

 Excited State   1:      Singlet-A      5.0524 eV  245.40 nm  f=0.0047  <S**2>=0.000
      20 -> 22         0.43628
      20 -> 23         0.16822
      21 -> 22        -0.28029
      21 -> 23         0.44992
 This state for optimization and/or second-order correction.
 Total Energy, E(TD-HF/TD-DFT) =  -232.017824106
 Copying the excited state density for this state as the 1-particle RhoCI density.

 The electronic state is 1-A.
 Alpha  occ. eigenvalues --  -10.21841 -10.20294 -10.19956 -10.19833 -10.19772
 Alpha  occ. eigenvalues --  -10.19513  -0.83579  -0.74753  -0.71902  -0.59634
 Alpha  occ. eigenvalues --   -0.58766  -0.50358  -0.45963  -0.43050  -0.42290
 Alpha  occ. eigenvalues --   -0.39208  -0.35776  -0.33722  -0.32217  -0.25468
 Alpha  occ. eigenvalues --   -0.23666
 Alpha virt. eigenvalues --   -0.02163  -0.00594   0.07951   0.11837   0.12591
 Alpha virt. eigenvalues --    0.14687   0.15007   0.17733   0.18407   0.25451
 Alpha virt. eigenvalues --    0.28116   0.29667   0.31734   0.46306   0.48266

 Mulliken charges:
               1
     1  C   -0.105555
     2  C   -0.073625
     3  C   -0.086404
     4  C   -0.106260
     5  C   -0.062600
     6  C   -0.103581
     7  H    0.084697
     8  H    0.087933
     9  H    0.096400
    10  H    0.089948
    11  H    0.083480
    12  H    0.095566
 Sum of Mulliken charges =  -0.00000

 Dipole moment (field-independent basis, Debye):
    X=              0.1550    Y=              0.0209    Z=              0.1986  Tot=              0.2528
 Quadrupole moment (field-independent basis, Debye-Ang):
   XX=            -31.0083   YY=            -32.7493   ZZ=            -38.9501
   XY=             -0.5480   XZ=             -0.7092   YZ=             -0.5521

 Normal termination of Gaussian 16 at Fri Nov 10 21:53:28 2023.
