 Gaussian 16, Revision B.01,
 Gaussian 16:  EM64L-G16RevB.01 20-Dec-2017

 ---------------------------------
 # TD=(NStates=1) B3LYP/6-31G(d,p)
 ---------------------------------

 -------
 EMISPCT
 -------
 Symbolic Z-matrix:
 Charge =  0 Multiplicity = 1

                         Standard orientation:
 ---------------------------------------------------------------------
 Center     Atomic      Atomic             Coordinates (Angstroms)
 Number     Number       Type             X           Y           Z
 ---------------------------------------------------------------------
      1          6           0       -0.786610   -1.113868   -0.064934
      2          6           0       -1.421318    0.030117   -0.028058
      3          6           0       -0.679662    1.158933    0.063290
      4          6           0        0.737575    1.143697   -0.021341
      5          6           0        1.465354   -0.071917   -0.043427
      6          6           0        0.683039   -1.216485   -0.027145
      7          1           0       -1.228037   -2.015559    0.260864
      8          1           0        1.047157   -2.199610    0.287456
      9          1           0        2.528994    0.050315    0.150773
     10          1           0        1.124161    2.164847   -0.068491
     11          1           0       -0.909816    2.264157    0.163033
     12          1           0       -2.552729    0.152989   -0.063940
 ---------------------------------------------------------------------

 SCF Done:  E(RB3LYP) =  -232.210671889     A.U. after   13 cycles

 Excitation energies and oscillator strengths:

 Excited State   1:      Singlet-A      5.3706 eV  230.86 nm  f=0.0028  <S**2>=0.000
      20 -> 22        -0.45181
      21 -> 23         0.53964
 This state for optimization and/or second-order correction.
 Total Energy, E(TD-HF/TD-DFT) =  -232.013304676
 Copying the excited state density for this state as the 1-particle RhoCI density.

 The electronic state is 1-A.
 Alpha  occ. eigenvalues --  -10.19559 -10.19363 -10.18793 -10.18749 -10.18675
 Alpha  occ. eigenvalues --  -10.18271  -0.85310  -0.75362  -0.73261  -0.60234
 Alpha  occ. eigenvalues --   -0.59535  -0.51559  -0.45288  -0.44832  -0.42857
 Alpha  occ. eigenvalues --   -0.39548  -0.35920  -0.34698  -0.32232  -0.25741
 Alpha  occ. eigenvalues --   -0.23578
 Alpha virt. eigenvalues --   -0.00776   0.00308   0.08185   0.13323   0.13643
 Alpha virt. eigenvalues --    0.14949   0.16798   0.19505   0.19981   0.27462
 Alpha virt. eigenvalues --    0.29778   0.31623   0.34070   0.46488   0.51616

 Mulliken charges:
               1
     1  C   -0.097287
     2  C   -0.071467
     3  C   -0.067342
     4  C   -0.099189
     5  C   -0.075366
     6  C   -0.110883
     7  H    0.088544
     8  H    0.089215
     9  H    0.093402
    10  H    0.082677
    11  H    0.080437
    12  H    0.087258
 Sum of Mulliken charges =  -0.00000

 Dipole moment (field-independent basis, Debye):
    X=              0.0420    Y=              0.1456    Z=              0.4483  Tot=              0.4733
 Quadrupole moment (field-independent basis, Debye-Ang):
   XX=            -32.2787   YY=            -31.6676   ZZ=            -38.3047
   XY=              0.3414   XZ=              0.2784   YZ=             -0.8594

 Normal termination of Gaussian 16 at Fri Nov 10 21:48:22 2023.
