 Gaussian 16, Revision B.01,
 Gaussian 16:  EM64L-G16RevB.01 20-Dec-2017

 ---------------------------------
 # TD=(NStates=1) B3LYP/6-31G(d,p)
 ---------------------------------

 -------
 EMISPCT
 -------
 Symbolic Z-matrix:
 Charge =  0 Multiplicity = 1

                         Standard orientation:
 ---------------------------------------------------------------------
 Center     Atomic      Atomic             Coordinates (Angstroms)
 Number     Number       Type             X           Y           Z
 ---------------------------------------------------------------------
      1          6           0       -0.491786    1.285525   -0.033900
      2          6           0       -1.437293    0.206552    0.082210
      3          6           0       -0.890824   -1.116746   -0.079178
      4          6           0        0.555606   -1.295516    0.031304
      5          6           0        1.424389   -0.244422   -0.050747
      6          6           0        0.920708    1.116990   -0.020453
      7          1           0       -1.096684    2.300736   -0.018701
      8          1           0        1.523162    2.048675    0.152552
      9          1           0        2.402758   -0.340161    0.155323
     10          1           0        0.889584   -2.250998    0.090086
     11          1           0       -1.661743   -1.906364    0.042096
     12          1           0       -2.541875    0.433815    0.003229
 ---------------------------------------------------------------------

 SCF Done:  E(RB3LYP) =  -232.213475902     A.U. after   13 cycles

 Excitation energies and oscillator strengths:

 Excited State   1:      Singlet-A      5.1330 eV  241.54 nm  f=0.0032  <S**2>=0.000
      20 -> 22         0.43872
      20 -> 23        -0.19614
      21 -> 22         0.29782
      21 -> 23         0.42406
 This state for optimization and/or second-order correction.
 Total Energy, E(TD-HF/TD-DFT) =  -232.024841862
 Copying the excited state density for this state as the 1-particle RhoCI density.

 The electronic state is 1-A.
 Alpha  occ. eigenvalues --  -10.20331 -10.20179 -10.20130 -10.19983 -10.18981
 Alpha  occ. eigenvalues --  -10.18817  -0.83439  -0.74095  -0.72742  -0.59825
 Alpha  occ. eigenvalues --   -0.59324  -0.51165  -0.46077  -0.43366  -0.41781
 Alpha  occ. eigenvalues --   -0.40752  -0.35193  -0.34516  -0.32398  -0.24910
 Alpha  occ. eigenvalues --   -0.23823
 Alpha virt. eigenvalues --   -0.01576  -0.00174   0.08496   0.12839   0.13635
 Alpha virt. eigenvalues --    0.14412   0.16990   0.17882   0.18758   0.27826
 Alpha virt. eigenvalues --    0.28254   0.29623   0.31381   0.46805   0.47352

 Mulliken charges:
               1
     1  C   -0.080085
     2  C   -0.090696
     3  C   -0.100785
     4  C   -0.077379
     5  C   -0.075688
     6  C   -0.103067
     7  H    0.073547
     8  H    0.097973
     9  H    0.088707
    10  H    0.086829
    11  H    0.088058
    12  H    0.092586
 Sum of Mulliken charges =  -0.00000

 Dipole moment (field-independent basis, Debye):
    X=              0.0062    Y=             -0.0609    Z=              0.2772  Tot=              0.2839
 Quadrupole moment (field-independent basis, Debye-Ang):
   XX=            -30.9475   YY=            -32.1399   ZZ=            -38.8805
   XY=             -0.0638   XZ=              0.5489   YZ=             -0.0384

 Normal termination of Gaussian 16 at Fri Nov 10 22:28:20 2023.
