 Gaussian 16, Revision B.01,
 Gaussian 16:  EM64L-G16RevB.01 20-Dec-2017

 ---------------------------------
 # TD=(NStates=1) B3LYP/6-31G(d,p)
 ---------------------------------

 -------
 EMISPCT
 -------
 Symbolic Z-matrix:
 Charge =  0 Multiplicity = 1

                         Standard orientation:
 ---------------------------------------------------------------------
 Center     Atomic      Atomic             Coordinates (Angstroms)
 Number     Number       Type             X           Y           Z
 ---------------------------------------------------------------------
      1          6           0        1.468795    0.172151   -0.054775
      2          6           0        0.552417    1.343932    0.025693
      3          6           0       -0.876821    1.096500    0.040058
      4          6           0       -1.449127   -0.156059   -0.047483
      5          6           0       -0.547440   -1.367461   -0.029084
      6          6           0        0.901115   -1.146818   -0.025684
      7          1           0        2.597569    0.327329   -0.029567
      8          1           0        1.507728   -1.962272    0.352438
      9          1           0       -1.211226   -2.217432    0.190040
     10          1           0       -2.517518   -0.185353   -0.084873
     11          1           0       -1.585602    1.962632    0.123459
     12          1           0        0.915422    2.421633   -0.003857
 ---------------------------------------------------------------------

 SCF Done:  E(RB3LYP) =  -232.211704299     A.U. after   13 cycles

 Excitation energies and oscillator strengths:

 Excited State   1:      Singlet-A      4.9305 eV  251.46 nm  f=0.0002  <S**2>=0.000
      20 -> 22         0.51163
      21 -> 23        -0.48568
 This state for optimization and/or second-order correction.
 Total Energy, E(TD-HF/TD-DFT) =  -232.030511181
 Copying the excited state density for this state as the 1-particle RhoCI density.

 The electronic state is 1-A.
 Alpha  occ. eigenvalues --  -10.21321 -10.21095 -10.21025 -10.20597 -10.19614
 Alpha  occ. eigenvalues --  -10.19499  -0.82193  -0.73647  -0.71787  -0.59890
 Alpha  occ. eigenvalues --   -0.58347  -0.50099  -0.46477  -0.42754  -0.41527
 Alpha  occ. eigenvalues --   -0.40125  -0.35303  -0.34249  -0.32074  -0.24731
 Alpha  occ. eigenvalues --   -0.23301
 Alpha virt. eigenvalues --   -0.02244  -0.00476   0.08564   0.12258   0.13223
 Alpha virt. eigenvalues --    0.13895   0.15333   0.16655   0.18514   0.25802
 Alpha virt. eigenvalues --    0.27007   0.28397   0.30873   0.46915   0.48982

 Mulliken charges:
               1
     1  C   -0.098955
     2  C   -0.096609
     3  C   -0.072775
     4  C   -0.092766
     5  C   -0.101636
     6  C   -0.104368
     7  H    0.097147
     8  H    0.099520
     9  H    0.102914
    10  H    0.091625
    11  H    0.081593
    12  H    0.094309
 Sum of Mulliken charges =  -0.00000

 Dipole moment (field-independent basis, Debye):
    X=             -0.1676    Y=              0.1351    Z=              0.3596  Tot=              0.4192
 Quadrupole moment (field-independent basis, Debye-Ang):
   XX=            -30.7685   YY=            -32.1409   ZZ=            -39.1889
   XY=              0.3496   XZ=              0.1915   YZ=             -0.8091

 Normal termination of Gaussian 16 at Fri Nov 10 19:43:38 2023.
