 Gaussian 16, Revision B.01,
 Gaussian 16:  EM64L-G16RevB.01 20-Dec-2017

 ---------------------------------
 # TD=(NStates=1) B3LYP/6-31G(d,p)
 ---------------------------------

 -------
 EMISPCT
 -------
 Symbolic Z-matrix:
 Charge =  0 Multiplicity = 1

                         Standard orientation:
 ---------------------------------------------------------------------
 Center     Atomic      Atomic             Coordinates (Angstroms)
 Number     Number       Type             X           Y           Z
 ---------------------------------------------------------------------
      1          6           0        1.332382    0.660065   -0.114233
      2          6           0        0.053344    1.433188   -0.023729
      3          6           0       -1.245768    0.773482    0.004593
      4          6           0       -1.333146   -0.680429   -0.023309
      5          6           0       -0.048167   -1.442388   -0.072678
      6          6           0        1.257600   -0.795851    0.053192
      7          1           0        2.308892    1.153581    0.122680
      8          1           0        2.156015   -1.283243    0.281415
      9          1           0       -0.149676   -2.417692    0.108145
     10          1           0       -2.429608   -1.094731    0.187615
     11          1           0       -2.067966    1.422463    0.047361
     12          1           0        0.084872    2.531221    0.309767
 ---------------------------------------------------------------------

 SCF Done:  E(RB3LYP) =  -232.193184025     A.U. after   13 cycles

 Excitation energies and oscillator strengths:

 Excited State   1:      Singlet-A      4.7163 eV  262.89 nm  f=0.0016  <S**2>=0.000
      20 -> 22         0.46604
      20 -> 23         0.17173
      21 -> 22        -0.25317
      21 -> 23         0.43464
 This state for optimization and/or second-order correction.
 Total Energy, E(TD-HF/TD-DFT) =  -232.019864644
 Copying the excited state density for this state as the 1-particle RhoCI density.

 The electronic state is 1-A.
 Alpha  occ. eigenvalues --  -10.21888 -10.21094 -10.20936 -10.20599 -10.20052
 Alpha  occ. eigenvalues --  -10.19842  -0.81475  -0.73138  -0.71826  -0.59605
 Alpha  occ. eigenvalues --   -0.58864  -0.50247  -0.47178  -0.42437  -0.41180
 Alpha  occ. eigenvalues --   -0.40157  -0.34672  -0.33854  -0.33231  -0.24114
 Alpha  occ. eigenvalues --   -0.23333
 Alpha virt. eigenvalues --   -0.02441  -0.01215   0.08047   0.11182   0.12581
 Alpha virt. eigenvalues --    0.14406   0.16968   0.17396   0.18631   0.26394
 Alpha virt. eigenvalues --    0.27046   0.27537   0.28687   0.45139   0.47181

 Mulliken charges:
               1
     1  C   -0.106706
     2  C   -0.098962
     3  C   -0.077639
     4  C   -0.102344
     5  C   -0.094193
     6  C   -0.082062
     7  H    0.092476
     8  H    0.099527
     9  H    0.089410
    10  H    0.097296
    11  H    0.091928
    12  H    0.091268
 Sum of Mulliken charges =  -0.00000

 Dipole moment (field-independent basis, Debye):
    X=             -0.0157    Y=             -0.0048    Z=              0.6995  Tot=              0.6997
 Quadrupole moment (field-independent basis, Debye-Ang):
   XX=            -30.7235   YY=            -32.0552   ZZ=            -39.1989
   XY=             -0.2917   XZ=              0.3443   YZ=              0.0948

 Normal termination of Gaussian 16 at Fri Nov 10 22:18:00 2023.
