 Gaussian 16, Revision B.01,
 Gaussian 16:  EM64L-G16RevB.01 20-Dec-2017

 ---------------------------------
 # TD=(NStates=1) B3LYP/6-31G(d,p)
 ---------------------------------

 -------
 EMISPCT
 -------
 Symbolic Z-matrix:
 Charge =  0 Multiplicity = 1

                         Standard orientation:
 ---------------------------------------------------------------------
 Center     Atomic      Atomic             Coordinates (Angstroms)
 Number     Number       Type             X           Y           Z
 ---------------------------------------------------------------------
      1          6           0        0.023114   -1.419639    0.028243
      2          6           0       -1.225118   -0.749344    0.016202
      3          6           0       -1.304024    0.706226   -0.030368
      4          6           0        0.045429    1.397370   -0.006114
      5          6           0        1.233159    0.695534   -0.024187
      6          6           0        1.248278   -0.665032   -0.000907
      7          1           0        0.202456   -2.415470   -0.009303
      8          1           0        2.031764   -1.115118   -0.031651
      9          1           0        2.117860    1.308311    0.104263
     10          1           0       -0.026209    2.450549    0.012669
     11          1           0       -2.340374    1.408997    0.142315
     12          1           0       -2.110528   -1.427948   -0.115505
 ---------------------------------------------------------------------

 SCF Done:  E(RB3LYP) =  -232.180055377     A.U. after   13 cycles

 Excitation energies and oscillator strengths:

 Excited State   1:      Singlet-A      5.1849 eV  239.13 nm  f=0.0007  <S**2>=0.000
      20 -> 22         0.50809
      21 -> 23         0.47812
 This state for optimization and/or second-order correction.
 Total Energy, E(TD-HF/TD-DFT) =  -231.989515443
 Copying the excited state density for this state as the 1-particle RhoCI density.

 The electronic state is 1-A.
 Alpha  occ. eigenvalues --  -10.22208 -10.20446 -10.19414 -10.18711 -10.18425
 Alpha  occ. eigenvalues --  -10.17041  -0.83698  -0.74096  -0.73222  -0.60554
 Alpha  occ. eigenvalues --   -0.59428  -0.51837  -0.47079  -0.43478  -0.41774
 Alpha  occ. eigenvalues --   -0.40120  -0.35667  -0.34982  -0.32355  -0.25011
 Alpha  occ. eigenvalues --   -0.23560
 Alpha virt. eigenvalues --   -0.01567   0.00249   0.07695   0.13353   0.14377
 Alpha virt. eigenvalues --    0.14580   0.16742   0.18071   0.21010   0.26429
 Alpha virt. eigenvalues --    0.28178   0.30904   0.32454   0.46709   0.49608

 Mulliken charges:
               1
     1  C   -0.069461
     2  C   -0.104278
     3  C   -0.102944
     4  C   -0.097539
     5  C   -0.065817
     6  C   -0.039852
     7  H    0.082765
     8  H    0.049639
     9  H    0.084948
    10  H    0.086613
    11  H    0.088645
    12  H    0.087281
 Sum of Mulliken charges =  -0.00000

 Dipole moment (field-independent basis, Debye):
    X=              0.2422    Y=             -0.0529    Z=              0.0646  Tot=              0.2561
 Quadrupole moment (field-independent basis, Debye-Ang):
   XX=            -31.6897   YY=            -30.9813   ZZ=            -38.7427
   XY=             -0.5127   XZ=              0.0313   YZ=              0.5220

 Normal termination of Gaussian 16 at Fri Nov 10 21:00:52 2023.
