 Gaussian 16, Revision B.01,
 Gaussian 16:  EM64L-G16RevB.01 20-Dec-2017

 ---------------------------------
 # TD=(NStates=1) B3LYP/6-31G(d,p)
 ---------------------------------

 -------
 EMISPCT
 -------
 Symbolic Z-matrix:
 Charge =  0 Multiplicity = 1

                         Standard orientation:
 ---------------------------------------------------------------------
 Center     Atomic      Atomic             Coordinates (Angstroms)
 Number     Number       Type             X           Y           Z
 ---------------------------------------------------------------------
      1          6           0       -0.263760   -1.402833   -0.040449
      2          6           0       -1.386288   -0.483136   -0.073814
      3          6           0       -1.055281    0.890653    0.072374
      4          6           0        0.295921    1.408990   -0.046049
      5          6           0        1.364492    0.473650    0.073014
      6          6           0        1.089933   -0.950416    0.001711
      7          1           0       -0.513457   -2.471446   -0.078732
      8          1           0        1.929979   -1.664424    0.093467
      9          1           0        2.439318    0.851568   -0.049064
     10          1           0        0.348957    2.572434   -0.189886
     11          1           0       -1.957905    1.698389   -0.032041
     12          1           0       -2.516997   -0.607970    0.335530
 ---------------------------------------------------------------------

 SCF Done:  E(RB3LYP) =  -232.203423867     A.U. after   12 cycles

 Excitation energies and oscillator strengths:

 Excited State   1:      Singlet-A      5.0184 eV  247.06 nm  f=0.0028  <S**2>=0.000
      20 -> 23         0.44276
      21 -> 22         0.54204
 This state for optimization and/or second-order correction.
 Total Energy, E(TD-HF/TD-DFT) =  -232.019002602
 Copying the excited state density for this state as the 1-particle RhoCI density.

 The electronic state is 1-A.
 Alpha  occ. eigenvalues --  -10.21030 -10.20898 -10.20892 -10.20736 -10.20689
 Alpha  occ. eigenvalues --  -10.20627  -0.83069  -0.73074  -0.72823  -0.59203
 Alpha  occ. eigenvalues --   -0.58284  -0.49775  -0.44587  -0.43303  -0.40923
 Alpha  occ. eigenvalues --   -0.40225  -0.35231  -0.33369  -0.32657  -0.24678
 Alpha  occ. eigenvalues --   -0.24307
 Alpha virt. eigenvalues --   -0.01872  -0.01016   0.06574   0.10754   0.12557
 Alpha virt. eigenvalues --    0.13744   0.15739   0.15764   0.16659   0.26724
 Alpha virt. eigenvalues --    0.27784   0.30106   0.30315   0.45375   0.46659

 Mulliken charges:
               1
     1  C   -0.099322
     2  C   -0.093616
     3  C   -0.088015
     4  C   -0.080523
     5  C   -0.099291
     6  C   -0.083400
     7  H    0.093440
     8  H    0.098487
     9  H    0.091042
    10  H    0.094209
    11  H    0.070100
    12  H    0.096888
 Sum of Mulliken charges =  -0.00000

 Dipole moment (field-independent basis, Debye):
    X=              0.1749    Y=              0.0091    Z=              0.0658  Tot=              0.1871
 Quadrupole moment (field-independent basis, Debye-Ang):
   XX=            -31.8474   YY=            -31.8622   ZZ=            -39.2760
   XY=             -0.4176   XZ=             -0.6418   YZ=             -0.6221

 Normal termination of Gaussian 16 at Fri Nov 10 20:24:21 2023.
