 Gaussian 16, Revision B.01,
 Gaussian 16:  EM64L-G16RevB.01 20-Dec-2017

 ---------------------------------
 # TD=(NStates=1) B3LYP/6-31G(d,p)
 ---------------------------------

 -------
 EMISPCT
 -------
 Symbolic Z-matrix:
 Charge =  0 Multiplicity = 1

                         Standard orientation:
 ---------------------------------------------------------------------
 Center     Atomic      Atomic             Coordinates (Angstroms)
 Number     Number       Type             X           Y           Z
 ---------------------------------------------------------------------
      1          6           0        0.936676   -1.057466    0.064599
      2          6           0       -0.490396   -1.346320   -0.065663
      3          6           0       -1.471916   -0.236119    0.019399
      4          6           0       -0.942495    1.028260    0.005019
      5          6           0        0.469919    1.332238   -0.026689
      6          6           0        1.478302    0.226317    0.005604
      7          1           0        1.831253   -1.757585   -0.107691
      8          1           0        2.687456    0.616668    0.154000
      9          1           0        0.541597    2.243358    0.029267
     10          1           0       -1.582218    2.015511   -0.308016
     11          1           0       -2.474171   -0.633344    0.539295
     12          1           0       -0.884454   -2.166068   -0.320472
 ---------------------------------------------------------------------

 SCF Done:  E(RB3LYP) =  -232.113917193     A.U. after   14 cycles

 Excitation energies and oscillator strengths:

 Excited State   1:      Singlet-A      4.7116 eV  263.14 nm  f=0.0065  <S**2>=0.000
      20 -> 22         0.43976
      20 -> 23        -0.13712
      21 -> 22         0.32509
      21 -> 23         0.42606
 This state for optimization and/or second-order correction.
 Total Energy, E(TD-HF/TD-DFT) =  -231.940767291
 Copying the excited state density for this state as the 1-particle RhoCI density.

 The electronic state is 1-A.
 Alpha  occ. eigenvalues --  -10.22224 -10.20832 -10.20771 -10.20433 -10.19637
 Alpha  occ. eigenvalues --  -10.18566  -0.83224  -0.73920  -0.73483  -0.62294
 Alpha  occ. eigenvalues --   -0.57291  -0.50381  -0.47476  -0.43251  -0.40305
 Alpha  occ. eigenvalues --   -0.39346  -0.36690  -0.34801  -0.30461  -0.25071
 Alpha  occ. eigenvalues --   -0.23075
 Alpha virt. eigenvalues --   -0.03131  -0.00886   0.07278   0.08366   0.12387
 Alpha virt. eigenvalues --    0.13707   0.14695   0.18427   0.19926   0.26385
 Alpha virt. eigenvalues --    0.27394   0.28023   0.32321   0.45016   0.47750

 Mulliken charges:
               1
     1  C   -0.090884
     2  C   -0.075263
     3  C   -0.112825
     4  C   -0.106911
     5  C   -0.026495
     6  C   -0.087576
     7  H    0.088425
     8  H    0.087958
     9  H    0.060348
    10  H    0.074739
    11  H    0.102059
    12  H    0.086426
 Sum of Mulliken charges =  -0.00000

 Dipole moment (field-independent basis, Debye):
    X=              0.0689    Y=              0.0199    Z=             -0.0054  Tot=              0.0720
 Quadrupole moment (field-independent basis, Debye-Ang):
   XX=            -31.9667   YY=            -32.1878   ZZ=            -38.6760
   XY=              0.9293   XZ=             -0.3381   YZ=              0.1451

 Normal termination of Gaussian 16 at Fri Nov 10 20:42:36 2023.
