 Gaussian 16, Revision B.01,
 Gaussian 16:  EM64L-G16RevB.01 20-Dec-2017

 ---------------------------------
 # TD=(NStates=1) B3LYP/6-31G(d,p)
 ---------------------------------

 -------
 EMISPCT
 -------
 Symbolic Z-matrix:
 Charge =  0 Multiplicity = 1

                         Standard orientation:
 ---------------------------------------------------------------------
 Center     Atomic      Atomic             Coordinates (Angstroms)
 Number     Number       Type             X           Y           Z
 ---------------------------------------------------------------------
      1          6           0        0.352313   -1.304934   -0.008223
      2          6           0        1.429544   -0.309403    0.016105
      3          6           0        1.012645    0.949745   -0.037850
      4          6           0       -0.347178    1.348459   -0.038363
      5          6           0       -1.441779    0.382264    0.109830
      6          6           0       -1.012876   -1.024366   -0.038457
      7          1           0        0.813212   -2.312039    0.115694
      8          1           0       -1.890142   -1.710991   -0.198136
      9          1           0       -2.424857    0.516106    0.081007
     10          1           0       -0.779438    2.384912   -0.194752
     11          1           0        1.902142    1.579427    0.210036
     12          1           0        2.423067   -0.708009   -0.032097
 ---------------------------------------------------------------------

 SCF Done:  E(RB3LYP) =  -232.196825009     A.U. after   14 cycles

 Excitation energies and oscillator strengths:

 Excited State   1:      Singlet-A      5.0106 eV  247.45 nm  f=0.0087  <S**2>=0.000
      20 -> 22        -0.36983
      20 -> 23        -0.22676
      21 -> 22         0.43188
      21 -> 23        -0.35075
 This state for optimization and/or second-order correction.
 Total Energy, E(TD-HF/TD-DFT) =  -232.012690579
 Copying the excited state density for this state as the 1-particle RhoCI density.

 The electronic state is 1-A.
 Alpha  occ. eigenvalues --  -10.20671 -10.20075 -10.19519 -10.19404 -10.19048
 Alpha  occ. eigenvalues --  -10.18787  -0.83834  -0.74732  -0.72357  -0.60617
 Alpha  occ. eigenvalues --   -0.59183  -0.50537  -0.47056  -0.44919  -0.41911
 Alpha  occ. eigenvalues --   -0.38837  -0.36311  -0.34867  -0.31130  -0.24855
 Alpha  occ. eigenvalues --   -0.23311
 Alpha virt. eigenvalues --   -0.01587  -0.00052   0.08186   0.13288   0.14186
 Alpha virt. eigenvalues --    0.14506   0.15167   0.18729   0.19614   0.25862
 Alpha virt. eigenvalues --    0.28176   0.29467   0.33693   0.46437   0.49124

 Mulliken charges:
               1
     1  C   -0.090896
     2  C   -0.073913
     3  C   -0.080517
     4  C   -0.107426
     5  C   -0.075685
     6  C   -0.097483
     7  H    0.074323
     8  H    0.091179
     9  H    0.086961
    10  H    0.090717
    11  H    0.083391
    12  H    0.099348
 Sum of Mulliken charges =  -0.00000

 Dipole moment (field-independent basis, Debye):
    X=             -0.0706    Y=             -0.1010    Z=             -0.0219  Tot=              0.1251
 Quadrupole moment (field-independent basis, Debye-Ang):
   XX=            -29.7722   YY=            -33.5231   ZZ=            -38.7283
   XY=             -0.7115   XZ=              0.6275   YZ=             -0.0054

 Normal termination of Gaussian 16 at Fri Nov 10 19:51:12 2023.
