 Gaussian 16, Revision B.01,
 Gaussian 16:  EM64L-G16RevB.01 20-Dec-2017

 ---------------------------------
 # TD=(NStates=1) B3LYP/6-31G(d,p)
 ---------------------------------

 -------
 EMISPCT
 -------
 Symbolic Z-matrix:
 Charge =  0 Multiplicity = 1

                         Standard orientation:
 ---------------------------------------------------------------------
 Center     Atomic      Atomic             Coordinates (Angstroms)
 Number     Number       Type             X           Y           Z
 ---------------------------------------------------------------------
      1          6           0       -1.239418   -0.797854    0.010634
      2          6           0        0.081367   -1.364322   -0.005510
      3          6           0        1.281530   -0.656079   -0.051895
      4          6           0        1.252447    0.775997    0.025392
      5          6           0       -0.079377    1.422003    0.039622
      6          6           0       -1.249524    0.652272   -0.064696
      7          1           0       -2.212075   -1.392491   -0.016048
      8          1           0       -2.224117    1.061637   -0.068844
      9          1           0       -0.348698    2.613823    0.263243
     10          1           0        2.123353    1.295631   -0.232912
     11          1           0        2.266073   -1.216058    0.085375
     12          1           0        0.113315   -2.554645    0.247902
 ---------------------------------------------------------------------

 SCF Done:  E(RB3LYP) =  -232.204044091     A.U. after   13 cycles

 Excitation energies and oscillator strengths:

 Excited State   1:      Singlet-A      5.0670 eV  244.69 nm  f=0.0036  <S**2>=0.000
      20 -> 22         0.52218
      20 -> 23         0.11285
      21 -> 22         0.17142
      21 -> 23        -0.42989
 This state for optimization and/or second-order correction.
 Total Energy, E(TD-HF/TD-DFT) =  -232.017835083
 Copying the excited state density for this state as the 1-particle RhoCI density.

 The electronic state is 1-A.
 Alpha  occ. eigenvalues --  -10.21573 -10.20690 -10.20552 -10.20396 -10.20249
 Alpha  occ. eigenvalues --  -10.19414  -0.83261  -0.73838  -0.72423  -0.60080
 Alpha  occ. eigenvalues --   -0.58100  -0.49908  -0.45844  -0.43541  -0.41295
 Alpha  occ. eigenvalues --   -0.39202  -0.36491  -0.34372  -0.31376  -0.24859
 Alpha  occ. eigenvalues --   -0.23981
 Alpha virt. eigenvalues --   -0.02190  -0.00129   0.07076   0.10452   0.12952
 Alpha virt. eigenvalues --    0.13948   0.15779   0.16915   0.18153   0.27083
 Alpha virt. eigenvalues --    0.27974   0.28873   0.31541   0.47077   0.47897

 Mulliken charges:
               1
     1  C   -0.089127
     2  C   -0.082654
     3  C   -0.086926
     4  C   -0.107938
     5  C   -0.091874
     6  C   -0.077351
     7  H    0.100750
     8  H    0.087172
     9  H    0.082339
    10  H    0.102528
    11  H    0.096484
    12  H    0.066598
 Sum of Mulliken charges =  -0.00000

 Dipole moment (field-independent basis, Debye):
    X=             -0.1703    Y=              0.0052    Z=              0.1180  Tot=              0.2073
 Quadrupole moment (field-independent basis, Debye-Ang):
   XX=            -30.7370   YY=            -32.7578   ZZ=            -39.1154
   XY=             -0.0117   XZ=             -0.1939   YZ=             -0.3134

 Normal termination of Gaussian 16 at Fri Nov 10 19:34:48 2023.
