 Gaussian 16, Revision B.01,
 Gaussian 16:  EM64L-G16RevB.01 20-Dec-2017

 ---------------------------------
 # TD=(NStates=1) B3LYP/6-31G(d,p)
 ---------------------------------

 -------
 EMISPCT
 -------
 Symbolic Z-matrix:
 Charge =  0 Multiplicity = 1

                         Standard orientation:
 ---------------------------------------------------------------------
 Center     Atomic      Atomic             Coordinates (Angstroms)
 Number     Number       Type             X           Y           Z
 ---------------------------------------------------------------------
      1          6           0       -0.765195   -1.177597   -0.005228
      2          6           0        0.645598   -1.259661    0.009141
      3          6           0        1.507388   -0.081390   -0.012081
      4          6           0        0.744837    1.190374   -0.020913
      5          6           0       -0.660679    1.295061   -0.018178
      6          6           0       -1.405818    0.061604    0.005388
      7          1           0       -1.557868   -2.052256   -0.239010
      8          1           0       -2.519800   -0.001823    0.103531
      9          1           0       -1.029236    2.337854    0.174357
     10          1           0        1.193036    2.084975   -0.020371
     11          1           0        2.597821   -0.242106   -0.002938
     12          1           0        0.919255   -2.296987    0.235660
 ---------------------------------------------------------------------

 SCF Done:  E(RB3LYP) =  -232.209531771     A.U. after   13 cycles

 Excitation energies and oscillator strengths:

 Excited State   1:      Singlet-A      5.1155 eV  242.37 nm  f=0.0007  <S**2>=0.000
      20 -> 22         0.49793
      20 -> 23        -0.11576
      21 -> 22         0.14495
      21 -> 23         0.46610
 This state for optimization and/or second-order correction.
 Total Energy, E(TD-HF/TD-DFT) =  -232.021540548
 Copying the excited state density for this state as the 1-particle RhoCI density.

 The electronic state is 1-A.
 Alpha  occ. eigenvalues --  -10.21218 -10.20015 -10.19980 -10.19872 -10.19654
 Alpha  occ. eigenvalues --  -10.19308  -0.83222  -0.73897  -0.72781  -0.60350
 Alpha  occ. eigenvalues --   -0.58582  -0.50761  -0.46047  -0.42790  -0.41328
 Alpha  occ. eigenvalues --   -0.40726  -0.35781  -0.33829  -0.32540  -0.24522
 Alpha  occ. eigenvalues --   -0.24065
 Alpha virt. eigenvalues --   -0.01397  -0.00439   0.07932   0.12095   0.13667
 Alpha virt. eigenvalues --    0.14681   0.15696   0.17270   0.19002   0.27131
 Alpha virt. eigenvalues --    0.28436   0.29928   0.30642   0.46181   0.46556

 Mulliken charges:
               1
     1  C   -0.080323
     2  C   -0.103726
     3  C   -0.092259
     4  C   -0.088162
     5  C   -0.086050
     6  C   -0.088959
     7  H    0.085311
     8  H    0.082686
     9  H    0.094407
    10  H    0.080971
    11  H    0.103709
    12  H    0.092394
 Sum of Mulliken charges =  -0.00000

 Dipole moment (field-independent basis, Debye):
    X=              0.0369    Y=              0.0900    Z=              0.1639  Tot=              0.1906
 Quadrupole moment (field-independent basis, Debye-Ang):
   XX=            -31.6113   YY=            -31.5098   ZZ=            -38.9647
   XY=              0.3002   XZ=              0.1025   YZ=              0.2562

 Normal termination of Gaussian 16 at Fri Nov 10 20:33:30 2023.
