 Gaussian 16, Revision B.01,
 Gaussian 16:  EM64L-G16RevB.01 20-Dec-2017

 ---------------------------------
 # TD=(NStates=1) B3LYP/6-31G(d,p)
 ---------------------------------

 -------
 EMISPCT
 -------
 Symbolic Z-matrix:
 Charge =  0 Multiplicity = 1

                         Standard orientation:
 ---------------------------------------------------------------------
 Center     Atomic      Atomic             Coordinates (Angstroms)
 Number     Number       Type             X           Y           Z
 ---------------------------------------------------------------------
      1          6           0        1.427708    0.423237   -0.053086
      2          6           0        0.281775    1.398743   -0.042861
      3          6           0       -1.086630    0.939574    0.033346
      4          6           0       -1.346000   -0.473625    0.002396
      5          6           0       -0.309434   -1.327514   -0.058552
      6          6           0        1.034415   -0.983981   -0.009344
      7          1           0        2.458313    0.572118    0.061767
      8          1           0        1.819778   -1.656521    0.424368
      9          1           0       -0.654303   -2.356978    0.148618
     10          1           0       -2.411231   -0.581174   -0.261943
     11          1           0       -1.938136    1.642855    0.387541
     12          1           0        0.714569    2.521096    0.008257
 ---------------------------------------------------------------------

 SCF Done:  E(RB3LYP) =  -232.193223074     A.U. after   13 cycles

 Excitation energies and oscillator strengths:

 Excited State   1:      Singlet-A      4.9897 eV  248.48 nm  f=0.0014  <S**2>=0.000
      20 -> 22         0.52866
      21 -> 23         0.45466
 This state for optimization and/or second-order correction.
 Total Energy, E(TD-HF/TD-DFT) =  -232.009855572
 Copying the excited state density for this state as the 1-particle RhoCI density.

 The electronic state is 1-A.
 Alpha  occ. eigenvalues --  -10.21911 -10.20738 -10.20458 -10.19761 -10.19213
 Alpha  occ. eigenvalues --  -10.18784  -0.83701  -0.73675  -0.72840  -0.59693
 Alpha  occ. eigenvalues --   -0.59062  -0.50202  -0.46640  -0.43712  -0.40717
 Alpha  occ. eigenvalues --   -0.39559  -0.37410  -0.33107  -0.31405  -0.24499
 Alpha  occ. eigenvalues --   -0.24110
 Alpha virt. eigenvalues --   -0.02007  -0.00714   0.07995   0.11348   0.12385
 Alpha virt. eigenvalues --    0.14917   0.15169   0.16971   0.18645   0.26307
 Alpha virt. eigenvalues --    0.27285   0.30224   0.32171   0.45727   0.49037

 Mulliken charges:
               1
     1  C   -0.095130
     2  C   -0.094669
     3  C   -0.106488
     4  C   -0.079909
     5  C   -0.083437
     6  C   -0.096108
     7  H    0.099644
     8  H    0.092735
     9  H    0.084284
    10  H    0.100866
    11  H    0.094858
    12  H    0.083352
 Sum of Mulliken charges =  -0.00000

 Dipole moment (field-independent basis, Debye):
    X=              0.0632    Y=              0.0487    Z=              0.4613  Tot=              0.4681
 Quadrupole moment (field-independent basis, Debye-Ang):
   XX=            -30.6716   YY=            -33.2918   ZZ=            -38.7276
   XY=              0.0732   XZ=              0.6546   YZ=             -0.1747

 Normal termination of Gaussian 16 at Fri Nov 10 19:50:24 2023.
