 Gaussian 16, Revision B.01,
 Gaussian 16:  EM64L-G16RevB.01 20-Dec-2017

 ---------------------------------
 # TD=(NStates=1) B3LYP/6-31G(d,p)
 ---------------------------------

 -------
 EMISPCT
 -------
 Symbolic Z-matrix:
 Charge =  0 Multiplicity = 1

                         Standard orientation:
 ---------------------------------------------------------------------
 Center     Atomic      Atomic             Coordinates (Angstroms)
 Number     Number       Type             X           Y           Z
 ---------------------------------------------------------------------
      1          6           0       -1.375782   -0.282448    0.008424
      2          6           0       -0.983745    1.003706   -0.051715
      3          6           0        0.403080    1.390673    0.041370
      4          6           0        1.417957    0.314339    0.053825
      5          6           0        0.991721   -1.076157   -0.053077
      6          6           0       -0.476833   -1.355278    0.023556
      7          1           0       -2.455601   -0.553106    0.405026
      8          1           0       -0.763235   -2.398153   -0.043309
      9          1           0        1.795160   -1.743197   -0.280756
     10          1           0        2.623366    0.513946    0.185967
     11          1           0        0.688958    2.475932   -0.054905
     12          1           0       -1.747039    1.735559   -0.346315
 ---------------------------------------------------------------------

 SCF Done:  E(RB3LYP) =  -232.203566824     A.U. after   13 cycles

 Excitation energies and oscillator strengths:

 Excited State   1:      Singlet-A      4.9675 eV  249.59 nm  f=0.0001  <S**2>=0.000
      20 -> 22        -0.48501
      21 -> 23         0.51304
 This state for optimization and/or second-order correction.
 Total Energy, E(TD-HF/TD-DFT) =  -232.021012733
 Copying the excited state density for this state as the 1-particle RhoCI density.

 The electronic state is 1-A.
 Alpha  occ. eigenvalues --  -10.21794 -10.20932 -10.20402 -10.20199 -10.19555
 Alpha  occ. eigenvalues --  -10.19324  -0.83263  -0.73481  -0.72435  -0.60322
 Alpha  occ. eigenvalues --   -0.57676  -0.50076  -0.46240  -0.42952  -0.41200
 Alpha  occ. eigenvalues --   -0.40228  -0.36488  -0.34203  -0.31334  -0.24553
 Alpha  occ. eigenvalues --   -0.23757
 Alpha virt. eigenvalues --   -0.01654  -0.00990   0.08068   0.10246   0.13915
 Alpha virt. eigenvalues --    0.14270   0.16301   0.16700   0.16984   0.26874
 Alpha virt. eigenvalues --    0.27421   0.29922   0.30653   0.46704   0.48512

 Mulliken charges:
               1
     1  C   -0.081585
     2  C   -0.085284
     3  C   -0.096313
     4  C   -0.100250
     5  C   -0.091652
     6  C   -0.096027
     7  H    0.085718
     8  H    0.095270
     9  H    0.097326
    10  H    0.083146
    11  H    0.095121
    12  H    0.094528
 Sum of Mulliken charges =  -0.00000

 Dipole moment (field-independent basis, Debye):
    X=              0.0755    Y=             -0.0336    Z=             -0.1277  Tot=              0.1521
 Quadrupole moment (field-independent basis, Debye-Ang):
   XX=            -31.7296   YY=            -31.7356   ZZ=            -38.9317
   XY=             -0.2505   XZ=             -0.3517   YZ=             -0.2053

 Normal termination of Gaussian 16 at Fri Nov 10 22:29:54 2023.
