 Gaussian 16, Revision B.01,
 Gaussian 16:  EM64L-G16RevB.01 20-Dec-2017

 ---------------------------------
 # TD=(NStates=1) B3LYP/6-31G(d,p)
 ---------------------------------

 -------
 EMISPCT
 -------
 Symbolic Z-matrix:
 Charge =  0 Multiplicity = 1

                         Standard orientation:
 ---------------------------------------------------------------------
 Center     Atomic      Atomic             Coordinates (Angstroms)
 Number     Number       Type             X           Y           Z
 ---------------------------------------------------------------------
      1          6           0       -0.556481   -1.269088   -0.021096
      2          6           0        0.880306   -1.064043   -0.006680
      3          6           0        1.450408    0.191938   -0.025140
      4          6           0        0.514537    1.346729   -0.003327
      5          6           0       -0.823164    1.077238    0.062907
      6          6           0       -1.473722   -0.253221   -0.043297
      7          1           0       -0.847782   -2.151818    0.190515
      8          1           0       -2.544968   -0.194959   -0.046110
      9          1           0       -1.572137    1.907162    0.073272
     10          1           0        0.987178    2.277502   -0.168746
     11          1           0        2.555612    0.027375    0.181027
     12          1           0        1.470792   -2.042576   -0.010165
 ---------------------------------------------------------------------

 SCF Done:  E(RB3LYP) =  -232.197789224     A.U. after   13 cycles

 Excitation energies and oscillator strengths:

 Excited State   1:      Singlet-A      5.2231 eV  237.38 nm  f=0.0032  <S**2>=0.000
      20 -> 22        -0.20609
      20 -> 23        -0.40073
      21 -> 22         0.50920
      21 -> 23        -0.19243
 This state for optimization and/or second-order correction.
 Total Energy, E(TD-HF/TD-DFT) =  -232.005843181
 Copying the excited state density for this state as the 1-particle RhoCI density.

 The electronic state is 1-A.
 Alpha  occ. eigenvalues --  -10.19899 -10.19708 -10.19561 -10.19516 -10.19263
 Alpha  occ. eigenvalues --  -10.17761  -0.83750  -0.74276  -0.73387  -0.61114
 Alpha  occ. eigenvalues --   -0.58387  -0.51516  -0.47359  -0.43345  -0.42489
 Alpha  occ. eigenvalues --   -0.39813  -0.35107  -0.34221  -0.32664  -0.24399
 Alpha  occ. eigenvalues --   -0.24252
 Alpha virt. eigenvalues --   -0.01106   0.00142   0.08521   0.13050   0.14178
 Alpha virt. eigenvalues --    0.15101   0.15908   0.18304   0.20011   0.26105
 Alpha virt. eigenvalues --    0.28530   0.30633   0.33768   0.44429   0.50532

 Mulliken charges:
               1
     1  C   -0.070551
     2  C   -0.086382
     3  C   -0.105782
     4  C   -0.090989
     5  C   -0.098488
     6  C   -0.070408
     7  H    0.071422
     8  H    0.098504
     9  H    0.075627
    10  H    0.098455
    11  H    0.097095
    12  H    0.081496
 Sum of Mulliken charges =  -0.00000

 Dipole moment (field-independent basis, Debye):
    X=             -0.1379    Y=             -0.1271    Z=              0.1296  Tot=              0.2280
 Quadrupole moment (field-independent basis, Debye-Ang):
   XX=            -30.9416   YY=            -32.1746   ZZ=            -38.6327
   XY=             -0.3785   XZ=              0.1213   YZ=             -0.5886

 Normal termination of Gaussian 16 at Fri Nov 10 21:02:34 2023.
