 Gaussian 16, Revision B.01,
 Gaussian 16:  EM64L-G16RevB.01 20-Dec-2017

 ---------------------------------
 # TD=(NStates=1) B3LYP/6-31G(d,p)
 ---------------------------------

 -------
 EMISPCT
 -------
 Symbolic Z-matrix:
 Charge =  0 Multiplicity = 1

                         Standard orientation:
 ---------------------------------------------------------------------
 Center     Atomic      Atomic             Coordinates (Angstroms)
 Number     Number       Type             X           Y           Z
 ---------------------------------------------------------------------
      1          6           0       -0.185133   -1.448522   -0.041576
      2          6           0       -1.343858   -0.526908    0.029773
      3          6           0       -1.145754    0.850445    0.016169
      4          6           0        0.182942    1.441780   -0.048225
      5          6           0        1.326080    0.496141   -0.002318
      6          6           0        1.148089   -0.838552    0.009442
      7          1           0       -0.280913   -2.510773   -0.119006
      8          1           0        2.212934   -1.490326    0.315452
      9          1           0        2.187489    1.136805   -0.206254
     10          1           0        0.443157    2.564551    0.203667
     11          1           0       -2.139091    1.430112    0.012992
     12          1           0       -2.317766   -0.976682    0.013559
 ---------------------------------------------------------------------

 SCF Done:  E(RB3LYP) =  -232.192215826     A.U. after   13 cycles

 Excitation energies and oscillator strengths:

 Excited State   1:      Singlet-A      5.0305 eV  246.47 nm  f=0.0012  <S**2>=0.000
      20 -> 22         0.53473
      21 -> 23        -0.46003
 This state for optimization and/or second-order correction.
 Total Energy, E(TD-HF/TD-DFT) =  -232.007349648
 Copying the excited state density for this state as the 1-particle RhoCI density.

 The electronic state is 1-A.
 Alpha  occ. eigenvalues --  -10.21306 -10.21187 -10.20824 -10.20463 -10.20046
 Alpha  occ. eigenvalues --  -10.19528  -0.83121  -0.74234  -0.72038  -0.60150
 Alpha  occ. eigenvalues --   -0.58214  -0.49959  -0.46120  -0.43401  -0.40487
 Alpha  occ. eigenvalues --   -0.39577  -0.36200  -0.34753  -0.31143  -0.25264
 Alpha  occ. eigenvalues --   -0.23348
 Alpha virt. eigenvalues --   -0.02607   0.00175   0.06458   0.10945   0.12674
 Alpha virt. eigenvalues --    0.14367   0.15355   0.16839   0.17593   0.25828
 Alpha virt. eigenvalues --    0.27475   0.28983   0.32206   0.45645   0.49102

 Mulliken charges:
               1
     1  C   -0.103271
     2  C   -0.080836
     3  C   -0.084306
     4  C   -0.117219
     5  C   -0.069786
     6  C   -0.086367
     7  H    0.099425
     8  H    0.069574
     9  H    0.099240
    10  H    0.095027
    11  H    0.084165
    12  H    0.094355
 Sum of Mulliken charges =  -0.00000

 Dipole moment (field-independent basis, Debye):
    X=             -0.1629    Y=             -0.0087    Z=              0.1002  Tot=              0.1915
 Quadrupole moment (field-independent basis, Debye-Ang):
   XX=            -31.8599   YY=            -31.6468   ZZ=            -39.1505
   XY=              1.0232   XZ=              0.2020   YZ=              0.1872

 Normal termination of Gaussian 16 at Fri Nov 10 23:10:27 2023.
