 Gaussian 16, Revision B.01,
 Gaussian 16:  EM64L-G16RevB.01 20-Dec-2017

 ---------------------------------
 # TD=(NStates=1) B3LYP/6-31G(d,p)
 ---------------------------------

 -------
 EMISPCT
 -------
 Symbolic Z-matrix:
 Charge =  0 Multiplicity = 1

                         Standard orientation:
 ---------------------------------------------------------------------
 Center     Atomic      Atomic             Coordinates (Angstroms)
 Number     Number       Type             X           Y           Z
 ---------------------------------------------------------------------
      1          6           0       -0.613124   -1.197362   -0.039166
      2          6           0       -1.498529   -0.163694   -0.051178
      3          6           0       -0.852687    1.132208    0.112809
      4          6           0        0.610375    1.298725   -0.097720
      5          6           0        1.484300    0.083721   -0.051271
      6          6           0        0.856339   -1.133188    0.053730
      7          1           0       -1.023757   -2.207460   -0.012572
      8          1           0        1.487895   -2.127413    0.210908
      9          1           0        2.471111    0.274240    0.084533
     10          1           0        1.043899    2.287776    0.054566
     11          1           0       -1.405218    2.013360    0.152986
     12          1           0       -2.493984   -0.362961   -0.053639
 ---------------------------------------------------------------------

 SCF Done:  E(RB3LYP) =  -232.208691046     A.U. after   14 cycles

 Excitation energies and oscillator strengths:

 Excited State   1:      Singlet-A      5.0703 eV  244.53 nm  f=0.0029  <S**2>=0.000
      20 -> 22         0.45200
      21 -> 23         0.54283
 This state for optimization and/or second-order correction.
 Total Energy, E(TD-HF/TD-DFT) =  -232.022361865
 Copying the excited state density for this state as the 1-particle RhoCI density.

 The electronic state is 1-A.
 Alpha  occ. eigenvalues --  -10.20446 -10.20374 -10.19892 -10.19231 -10.19208
 Alpha  occ. eigenvalues --  -10.18951  -0.83052  -0.74726  -0.71807  -0.60096
 Alpha  occ. eigenvalues --   -0.59160  -0.51163  -0.47813  -0.43076  -0.42436
 Alpha  occ. eigenvalues --   -0.39504  -0.34781  -0.34331  -0.33333  -0.25161
 Alpha  occ. eigenvalues --   -0.23157
 Alpha virt. eigenvalues --   -0.01368  -0.00517   0.09051   0.13187   0.14189
 Alpha virt. eigenvalues --    0.15111   0.16919   0.18372   0.19176   0.26405
 Alpha virt. eigenvalues --    0.27447   0.29004   0.32000   0.46145   0.47173

 Mulliken charges:
               1
     1  C   -0.090828
     2  C   -0.054750
     3  C   -0.106121
     4  C   -0.111882
     5  C   -0.075124
     6  C   -0.082549
     7  H    0.077220
     8  H    0.084672
     9  H    0.090782
    10  H    0.092157
    11  H    0.085213
    12  H    0.091209
 Sum of Mulliken charges =  -0.00000

 Dipole moment (field-independent basis, Debye):
    X=             -0.0550    Y=             -0.0060    Z=              0.2787  Tot=              0.2841
 Quadrupole moment (field-independent basis, Debye-Ang):
   XX=            -30.7560   YY=            -31.9113   ZZ=            -38.8659
   XY=              0.3653   XZ=              0.4112   YZ=              0.0973

 Normal termination of Gaussian 16 at Fri Nov 10 21:33:12 2023.
