 Gaussian 16, Revision B.01,
 Gaussian 16:  EM64L-G16RevB.01 20-Dec-2017

 ---------------------------------
 # TD=(NStates=1) B3LYP/6-31G(d,p)
 ---------------------------------

 -------
 EMISPCT
 -------
 Symbolic Z-matrix:
 Charge =  0 Multiplicity = 1

                         Standard orientation:
 ---------------------------------------------------------------------
 Center     Atomic      Atomic             Coordinates (Angstroms)
 Number     Number       Type             X           Y           Z
 ---------------------------------------------------------------------
      1          6           0        0.975134    1.025019    0.032207
      2          6           0       -0.466315    1.309200    0.078238
      3          6           0       -1.349111    0.335914   -0.041757
      4          6           0       -0.986324   -0.992556   -0.055128
      5          6           0        0.405523   -1.338994   -0.092313
      6          6           0        1.472174   -0.322505    0.038872
      7          1           0        1.651300    1.907806   -0.223091
      8          1           0        2.520931   -0.575236    0.165213
      9          1           0        0.503093   -2.383957    0.048842
     10          1           0       -1.668128   -1.806677    0.273880
     11          1           0       -2.444164    0.314802    0.248028
     12          1           0       -0.869512    2.446795   -0.273582
 ---------------------------------------------------------------------

 SCF Done:  E(RB3LYP) =  -232.188243549     A.U. after   13 cycles

 Excitation energies and oscillator strengths:

 Excited State   1:      Singlet-A      5.0108 eV  247.43 nm  f=0.0011  <S**2>=0.000
      20 -> 22        -0.47576
      21 -> 22        -0.13438
      21 -> 23         0.49756
 This state for optimization and/or second-order correction.
 Total Energy, E(TD-HF/TD-DFT) =  -232.004100025
 Copying the excited state density for this state as the 1-particle RhoCI density.

 The electronic state is 1-A.
 Alpha  occ. eigenvalues --  -10.21081 -10.21025 -10.20492 -10.19896 -10.19094
 Alpha  occ. eigenvalues --  -10.18454  -0.84251  -0.74277  -0.72955  -0.59861
 Alpha  occ. eigenvalues --   -0.59049  -0.50494  -0.45428  -0.43510  -0.42004
 Alpha  occ. eigenvalues --   -0.40113  -0.35334  -0.34600  -0.31450  -0.25044
 Alpha  occ. eigenvalues --   -0.23946
 Alpha virt. eigenvalues --   -0.01903  -0.01071   0.07512   0.11333   0.12499
 Alpha virt. eigenvalues --    0.14950   0.15622   0.16071   0.20381   0.26548
 Alpha virt. eigenvalues --    0.28945   0.29752   0.32741   0.46298   0.47987

 Mulliken charges:
               1
     1  C   -0.106148
     2  C   -0.095514
     3  C   -0.051723
     4  C   -0.099530
     5  C   -0.089970
     6  C   -0.087090
     7  H    0.094634
     8  H    0.102718
     9  H    0.084897
    10  H    0.093900
    11  H    0.081807
    12  H    0.072019
 Sum of Mulliken charges =  -0.00000

 Dipole moment (field-independent basis, Debye):
    X=              0.1455    Y=             -0.3608    Z=              0.1531  Tot=              0.4181
 Quadrupole moment (field-independent basis, Debye-Ang):
   XX=            -31.8341   YY=            -32.4293   ZZ=            -38.6855
   XY=              0.6951   XZ=             -0.5684   YZ=             -1.5012

 Normal termination of Gaussian 16 at Fri Nov 10 19:52:00 2023.
