 Gaussian 16, Revision B.01,
 Gaussian 16:  EM64L-G16RevB.01 20-Dec-2017

 ---------------------------------
 # TD=(NStates=1) B3LYP/6-31G(d,p)
 ---------------------------------

 -------
 EMISPCT
 -------
 Symbolic Z-matrix:
 Charge =  0 Multiplicity = 1

                         Standard orientation:
 ---------------------------------------------------------------------
 Center     Atomic      Atomic             Coordinates (Angstroms)
 Number     Number       Type             X           Y           Z
 ---------------------------------------------------------------------
      1          6           0       -1.440293   -0.127941   -0.054930
      2          6           0       -0.575322   -1.258300    0.015467
      3          6           0        0.770742   -1.107638    0.016229
      4          6           0        1.498326    0.121170   -0.040831
      5          6           0        0.596922    1.260944    0.100625
      6          6           0       -0.836787    1.115623   -0.006037
      7          1           0       -2.635736   -0.286171    0.091514
      8          1           0       -1.418349    2.092931   -0.085065
      9          1           0        0.951189    2.260936   -0.107813
     10          1           0        2.547496    0.253898   -0.097429
     11          1           0        1.462883   -2.125427   -0.013537
     12          1           0       -0.989010   -2.219317    0.029196
 ---------------------------------------------------------------------

 SCF Done:  E(RB3LYP) =  -232.215669795     A.U. after   13 cycles

 Excitation energies and oscillator strengths:

 Excited State   1:      Singlet-A      5.2569 eV  235.85 nm  f=0.0047  <S**2>=0.000
      20 -> 22         0.50292
      20 -> 23         0.16786
      21 -> 22         0.24142
      21 -> 23        -0.40029
 This state for optimization and/or second-order correction.
 Total Energy, E(TD-HF/TD-DFT) =  -232.022482713
 Copying the excited state density for this state as the 1-particle RhoCI density.

 The electronic state is 1-A.
 Alpha  occ. eigenvalues --  -10.20539 -10.20284 -10.20223 -10.19880 -10.19795
 Alpha  occ. eigenvalues --  -10.18708  -0.84186  -0.73680  -0.73537  -0.60261
 Alpha  occ. eigenvalues --   -0.58292  -0.51109  -0.45213  -0.43794  -0.41841
 Alpha  occ. eigenvalues --   -0.40049  -0.36141  -0.34366  -0.31901  -0.24869
 Alpha  occ. eigenvalues --   -0.24474
 Alpha virt. eigenvalues --   -0.01626   0.00289   0.07230   0.11731   0.13349
 Alpha virt. eigenvalues --    0.14787   0.16408   0.17954   0.18345   0.27261
 Alpha virt. eigenvalues --    0.28525   0.30054   0.32814   0.46923   0.48824

 Mulliken charges:
               1
     1  C   -0.085206
     2  C   -0.068101
     3  C   -0.080553
     4  C   -0.082848
     5  C   -0.102622
     6  C   -0.091639
     7  H    0.084923
     8  H    0.087065
     9  H    0.085744
    10  H    0.102506
    11  H    0.060417
    12  H    0.090314
 Sum of Mulliken charges =  -0.00000

 Dipole moment (field-independent basis, Debye):
    X=              0.0363    Y=              0.0515    Z=             -0.1270  Tot=              0.1418
 Quadrupole moment (field-independent basis, Debye-Ang):
   XX=            -31.3057   YY=            -32.1868   ZZ=            -38.9363
   XY=              0.4849   XZ=             -0.4887   YZ=             -0.4480

 Normal termination of Gaussian 16 at Fri Nov 10 21:05:18 2023.
