 Gaussian 16, Revision B.01,
 Gaussian 16:  EM64L-G16RevB.01 20-Dec-2017

 ---------------------------------
 # TD=(NStates=1) B3LYP/6-31G(d,p)
 ---------------------------------

 -------
 EMISPCT
 -------
 Symbolic Z-matrix:
 Charge =  0 Multiplicity = 1

                         Standard orientation:
 ---------------------------------------------------------------------
 Center     Atomic      Atomic             Coordinates (Angstroms)
 Number     Number       Type             X           Y           Z
 ---------------------------------------------------------------------
      1          6           0        1.304994    0.684717   -0.034647
      2          6           0        0.075134    1.398961    0.103660
      3          6           0       -1.262114    0.662251   -0.094142
      4          6           0       -1.248793   -0.687745    0.103028
      5          6           0       -0.015780   -1.306709   -0.041491
      6          6           0        1.171772   -0.716308   -0.087578
      7          1           0        2.205013    1.133868    0.006253
      8          1           0        2.090229   -1.371336    0.171043
      9          1           0        0.035893   -2.479381    0.243796
     10          1           0       -2.130572   -1.142696   -0.075457
     11          1           0       -2.129375    1.250911   -0.181440
     12          1           0       -0.222470    2.397633    0.142821
 ---------------------------------------------------------------------

 SCF Done:  E(RB3LYP) =  -232.186274338     A.U. after   13 cycles

 Excitation energies and oscillator strengths:

 Excited State   1:      Singlet-A      5.2024 eV  238.32 nm  f=0.0041  <S**2>=0.000
      20 -> 22        -0.43998
      21 -> 23         0.54593
 This state for optimization and/or second-order correction.
 Total Energy, E(TD-HF/TD-DFT) =  -231.995089281
 Copying the excited state density for this state as the 1-particle RhoCI density.

 The electronic state is 1-A.
 Alpha  occ. eigenvalues --  -10.19851 -10.19422 -10.19193 -10.18947 -10.18857
 Alpha  occ. eigenvalues --  -10.17721  -0.84781  -0.75276  -0.73003  -0.61306
 Alpha  occ. eigenvalues --   -0.58908  -0.51783  -0.46997  -0.44487  -0.42941
 Alpha  occ. eigenvalues --   -0.39871  -0.35747  -0.33841  -0.31907  -0.25378
 Alpha  occ. eigenvalues --   -0.23786
 Alpha virt. eigenvalues --   -0.00928  -0.00693   0.08194   0.13231   0.13842
 Alpha virt. eigenvalues --    0.16006   0.16978   0.18827   0.20195   0.25641
 Alpha virt. eigenvalues --    0.30404   0.31491   0.32563   0.46772   0.46957

 Mulliken charges:
               1
     1  C   -0.075552
     2  C   -0.093948
     3  C   -0.111169
     4  C   -0.059156
     5  C   -0.082477
     6  C   -0.076876
     7  H    0.089431
     8  H    0.085481
     9  H    0.061044
    10  H    0.086486
    11  H    0.088478
    12  H    0.088257
 Sum of Mulliken charges =  -0.00000

 Dipole moment (field-independent basis, Debye):
    X=             -0.1317    Y=              0.3090    Z=              0.1490  Tot=              0.3674
 Quadrupole moment (field-independent basis, Debye-Ang):
   XX=            -30.9912   YY=            -32.6815   ZZ=            -38.3653
   XY=             -0.5521   XZ=              0.7733   YZ=             -0.4510

 Normal termination of Gaussian 16 at Fri Nov 10 22:48:41 2023.
