 Gaussian 16, Revision B.01,
 Gaussian 16:  EM64L-G16RevB.01 20-Dec-2017

 ---------------------------------
 # TD=(NStates=1) B3LYP/6-31G(d,p)
 ---------------------------------

 -------
 EMISPCT
 -------
 Symbolic Z-matrix:
 Charge =  0 Multiplicity = 1

                         Standard orientation:
 ---------------------------------------------------------------------
 Center     Atomic      Atomic             Coordinates (Angstroms)
 Number     Number       Type             X           Y           Z
 ---------------------------------------------------------------------
      1          6           0       -1.236160   -0.815651    0.004395
      2          6           0       -1.433466    0.602356   -0.040360
      3          6           0       -0.110173    1.397017    0.025879
      4          6           0        1.228350    0.797077    0.061582
      5          6           0        1.378087   -0.595525   -0.084171
      6          6           0        0.172552   -1.362144   -0.006144
      7          1           0       -1.995521   -1.581801   -0.025198
      8          1           0        0.109971   -2.496459    0.345946
      9          1           0        2.386470   -1.102246   -0.138771
     10          1           0        2.157558    1.503225    0.108125
     11          1           0       -0.252192    2.566987   -0.082224
     12          1           0       -2.401425    0.971519    0.025037
 ---------------------------------------------------------------------

 SCF Done:  E(RB3LYP) =  -232.191943113     A.U. after   13 cycles

 Excitation energies and oscillator strengths:

 Excited State   1:      Singlet-A      4.7961 eV  258.51 nm  f=0.0067  <S**2>=0.000
      20 -> 22        -0.40250
      20 -> 23         0.13262
      21 -> 22         0.25117
      21 -> 23         0.50683
 This state for optimization and/or second-order correction.
 Total Energy, E(TD-HF/TD-DFT) =  -232.015690941
 Copying the excited state density for this state as the 1-particle RhoCI density.

 The electronic state is 1-A.
 Alpha  occ. eigenvalues --  -10.22091 -10.21345 -10.21043 -10.20827 -10.20776
 Alpha  occ. eigenvalues --  -10.20394  -0.81965  -0.73883  -0.70816  -0.59553
 Alpha  occ. eigenvalues --   -0.58082  -0.49617  -0.46697  -0.42729  -0.42276
 Alpha  occ. eigenvalues --   -0.38446  -0.34558  -0.33788  -0.32909  -0.25090
 Alpha  occ. eigenvalues --   -0.22618
 Alpha virt. eigenvalues --   -0.02206  -0.00914   0.07230   0.11924   0.13102
 Alpha virt. eigenvalues --    0.13432   0.14517   0.15695   0.17615   0.24054
 Alpha virt. eigenvalues --    0.27586   0.28208   0.29351   0.46062   0.48240

 Mulliken charges:
               1
     1  C   -0.089491
     2  C   -0.085810
     3  C   -0.111319
     4  C   -0.085474
     5  C   -0.084786
     6  C   -0.097912
     7  H    0.094899
     8  H    0.080161
     9  H    0.100847
    10  H    0.094052
    11  H    0.085044
    12  H    0.099789
 Sum of Mulliken charges =  -0.00000

 Dipole moment (field-independent basis, Debye):
    X=             -0.0694    Y=             -0.0351    Z=              0.1161  Tot=              0.1398
 Quadrupole moment (field-independent basis, Debye-Ang):
   XX=            -30.4667   YY=            -32.3532   ZZ=            -39.4739
   XY=              0.1957   XZ=             -0.0775   YZ=             -0.5436

 Normal termination of Gaussian 16 at Fri Nov 10 21:47:32 2023.
