 Gaussian 16, Revision B.01,
 Gaussian 16:  EM64L-G16RevB.01 20-Dec-2017

 ---------------------------------
 # TD=(NStates=1) B3LYP/6-31G(d,p)
 ---------------------------------

 -------
 EMISPCT
 -------
 Symbolic Z-matrix:
 Charge =  0 Multiplicity = 1

                         Standard orientation:
 ---------------------------------------------------------------------
 Center     Atomic      Atomic             Coordinates (Angstroms)
 Number     Number       Type             X           Y           Z
 ---------------------------------------------------------------------
      1          6           0        1.408105    0.407804   -0.019838
      2          6           0        0.294832    1.350702    0.011840
      3          6           0       -1.038238    0.934962   -0.019212
      4          6           0       -1.351431   -0.396399   -0.002039
      5          6           0       -0.327767   -1.391731   -0.036219
      6          6           0        1.044033   -0.958762    0.035509
      7          1           0        2.414187    0.837760   -0.269078
      8          1           0        1.823080   -1.662988    0.317338
      9          1           0       -0.563717   -2.370892   -0.179939
     10          1           0       -2.499832   -0.661079    0.154425
     11          1           0       -1.843401    1.709469    0.002085
     12          1           0        0.492473    2.468273    0.154923
 ---------------------------------------------------------------------

 SCF Done:  E(RB3LYP) =  -232.223498874     A.U. after   12 cycles

 Excitation energies and oscillator strengths:

 Excited State   1:      Singlet-A      5.0876 eV  243.70 nm  f=0.0002  <S**2>=0.000
      20 -> 22         0.49391
      21 -> 22         0.10007
      21 -> 23         0.48982
 This state for optimization and/or second-order correction.
 Total Energy, E(TD-HF/TD-DFT) =  -232.036532547
 Copying the excited state density for this state as the 1-particle RhoCI density.

 The electronic state is 1-A.
 Alpha  occ. eigenvalues --  -10.20192 -10.19971 -10.19857 -10.19834 -10.19234
 Alpha  occ. eigenvalues --  -10.18832  -0.83852  -0.73985  -0.72997  -0.59966
 Alpha  occ. eigenvalues --   -0.58744  -0.50965  -0.45700  -0.43379  -0.41481
 Alpha  occ. eigenvalues --   -0.41076  -0.35381  -0.34475  -0.33268  -0.24487
 Alpha  occ. eigenvalues --   -0.23616
 Alpha virt. eigenvalues --   -0.01172  -0.00273   0.07718   0.12695   0.13969
 Alpha virt. eigenvalues --    0.15540   0.16458   0.17754   0.17936   0.27735
 Alpha virt. eigenvalues --    0.28644   0.31233   0.31848   0.46881   0.49346

 Mulliken charges:
               1
     1  C   -0.094349
     2  C   -0.097984
     3  C   -0.064089
     4  C   -0.089627
     5  C   -0.081752
     6  C   -0.105037
     7  H    0.101223
     8  H    0.092761
     9  H    0.090621
    10  H    0.080647
    11  H    0.085980
    12  H    0.081606
 Sum of Mulliken charges =  -0.00000

 Dipole moment (field-independent basis, Debye):
    X=              0.0186    Y=              0.0101    Z=              0.0785  Tot=              0.0813
 Quadrupole moment (field-independent basis, Debye-Ang):
   XX=            -31.6233   YY=            -31.7545   ZZ=            -38.7051
   XY=              0.0570   XZ=             -0.2396   YZ=             -0.0316

 Normal termination of Gaussian 16 at Fri Nov 10 21:21:16 2023.
