 Gaussian 16, Revision B.01,
 Gaussian 16:  EM64L-G16RevB.01 20-Dec-2017

 ---------------------------------
 # TD=(NStates=1) B3LYP/6-31G(d,p)
 ---------------------------------

 -------
 EMISPCT
 -------
 Symbolic Z-matrix:
 Charge =  0 Multiplicity = 1

                         Standard orientation:
 ---------------------------------------------------------------------
 Center     Atomic      Atomic             Coordinates (Angstroms)
 Number     Number       Type             X           Y           Z
 ---------------------------------------------------------------------
      1          6           0       -0.987151    0.963907   -0.032542
      2          6           0        0.378593    1.332529    0.112163
      3          6           0        1.416415    0.295910   -0.079907
      4          6           0        1.006626   -0.939132    0.015270
      5          6           0       -0.361645   -1.348631   -0.042430
      6          6           0       -1.413054   -0.379788    0.059426
      7          1           0       -1.680466    1.946192   -0.112242
      8          1           0       -2.490852   -0.574633   -0.153665
      9          1           0       -0.792122   -2.226762   -0.017695
     10          1           0        1.764299   -1.643341    0.312908
     11          1           0        2.432294    0.582935   -0.246588
     12          1           0        0.528140    2.366839    0.025410
 ---------------------------------------------------------------------

 SCF Done:  E(RB3LYP) =  -232.192047754     A.U. after   13 cycles

 Excitation energies and oscillator strengths:

 Excited State   1:      Singlet-A      5.0553 eV  245.26 nm  f=0.0062  <S**2>=0.000
      20 -> 22         0.44865
      20 -> 23        -0.17960
      21 -> 22         0.33495
      21 -> 23         0.39093
 This state for optimization and/or second-order correction.
 Total Energy, E(TD-HF/TD-DFT) =  -232.006270560
 Copying the excited state density for this state as the 1-particle RhoCI density.

 The electronic state is 1-A.
 Alpha  occ. eigenvalues --  -10.20034 -10.19613 -10.19023 -10.18962 -10.18717
 Alpha  occ. eigenvalues --  -10.18465  -0.84413  -0.75009  -0.73129  -0.60968
 Alpha  occ. eigenvalues --   -0.58567  -0.51707  -0.46483  -0.44125  -0.41811
 Alpha  occ. eigenvalues --   -0.40615  -0.35817  -0.34752  -0.32237  -0.24841
 Alpha  occ. eigenvalues --   -0.23439
 Alpha virt. eigenvalues --   -0.01734   0.00213   0.08861   0.12206   0.14202
 Alpha virt. eigenvalues --    0.15210   0.17681   0.18366   0.19429   0.28114
 Alpha virt. eigenvalues --    0.29575   0.30076   0.32399   0.46094   0.47132

 Mulliken charges:
               1
     1  C   -0.082333
     2  C   -0.090989
     3  C   -0.081708
     4  C   -0.075315
     5  C   -0.074822
     6  C   -0.106473
     7  H    0.070578
     8  H    0.092748
     9  H    0.082383
    10  H    0.087856
    11  H    0.094727
    12  H    0.083347
 Sum of Mulliken charges =  -0.00000

 Dipole moment (field-independent basis, Debye):
    X=              0.1116    Y=              0.0122    Z=             -0.1323  Tot=              0.1735
 Quadrupole moment (field-independent basis, Debye-Ang):
   XX=            -31.3291   YY=            -32.1512   ZZ=            -38.4401
   XY=              0.4435   XZ=              0.4290   YZ=             -0.5547

 Normal termination of Gaussian 16 at Fri Nov 10 20:29:39 2023.
