 Gaussian 16, Revision B.01,
 Gaussian 16:  EM64L-G16RevB.01 20-Dec-2017

 ---------------------------------
 # TD=(NStates=1) B3LYP/6-31G(d,p)
 ---------------------------------

 -------
 EMISPCT
 -------
 Symbolic Z-matrix:
 Charge =  0 Multiplicity = 1

                         Standard orientation:
 ---------------------------------------------------------------------
 Center     Atomic      Atomic             Coordinates (Angstroms)
 Number     Number       Type             X           Y           Z
 ---------------------------------------------------------------------
      1          6           0       -0.411091   -1.325836    0.016482
      2          6           0        1.058209   -1.069265   -0.015929
      3          6           0        1.414108    0.339009    0.002478
      4          6           0        0.414346    1.365678   -0.022656
      5          6           0       -1.044543    1.043617    0.047963
      6          6           0       -1.426666   -0.364677   -0.037001
      7          1           0       -0.733761   -2.406411    0.129777
      8          1           0       -2.439730   -0.688447   -0.107381
      9          1           0       -1.683720    1.959901    0.038203
     10          1           0        0.817804    2.386458   -0.039831
     11          1           0        2.363661    0.728251    0.055485
     12          1           0        1.649571   -1.910912   -0.024273
 ---------------------------------------------------------------------

 SCF Done:  E(RB3LYP) =  -232.217715692     A.U. after   14 cycles

 Excitation energies and oscillator strengths:

 Excited State   1:      Singlet-A      4.9615 eV  249.89 nm  f=0.0034  <S**2>=0.000
      20 -> 22         0.47962
      20 -> 23         0.15441
      21 -> 22         0.24884
      21 -> 23        -0.42883
 This state for optimization and/or second-order correction.
 Total Energy, E(TD-HF/TD-DFT) =  -232.035384312
 Copying the excited state density for this state as the 1-particle RhoCI density.

 The electronic state is 1-A.
 Alpha  occ. eigenvalues --  -10.21100 -10.20205 -10.20144 -10.20024 -10.19952
 Alpha  occ. eigenvalues --  -10.19495  -0.82157  -0.73762  -0.72010  -0.60793
 Alpha  occ. eigenvalues --   -0.58047  -0.50978  -0.47326  -0.43241  -0.41702
 Alpha  occ. eigenvalues --   -0.40023  -0.34849  -0.34115  -0.33252  -0.24529
 Alpha  occ. eigenvalues --   -0.23270
 Alpha virt. eigenvalues --   -0.02003  -0.00109   0.09252   0.13076   0.14094
 Alpha virt. eigenvalues --    0.14817   0.16071   0.17793   0.18758   0.26132
 Alpha virt. eigenvalues --    0.26914   0.28901   0.30505   0.46627   0.47582

 Mulliken charges:
               1
     1  C   -0.101890
     2  C   -0.077821
     3  C   -0.079350
     4  C   -0.097268
     5  C   -0.103245
     6  C   -0.078139
     7  H    0.080564
     8  H    0.095243
     9  H    0.095133
    10  H    0.088760
    11  H    0.084607
    12  H    0.093404
 Sum of Mulliken charges =  -0.00000

 Dipole moment (field-independent basis, Debye):
    X=              0.0488    Y=              0.0115    Z=              0.0257  Tot=              0.0563
 Quadrupole moment (field-independent basis, Debye-Ang):
   XX=            -31.4585   YY=            -30.8837   ZZ=            -39.1656
   XY=              0.2179   XZ=              0.1518   YZ=             -0.1157

 Normal termination of Gaussian 16 at Fri Nov 10 21:26:38 2023.
