 Gaussian 16, Revision B.01,
 Gaussian 16:  EM64L-G16RevB.01 20-Dec-2017

 ---------------------------------
 # TD=(NStates=1) B3LYP/6-31G(d,p)
 ---------------------------------

 -------
 EMISPCT
 -------
 Symbolic Z-matrix:
 Charge =  0 Multiplicity = 1

                         Standard orientation:
 ---------------------------------------------------------------------
 Center     Atomic      Atomic             Coordinates (Angstroms)
 Number     Number       Type             X           Y           Z
 ---------------------------------------------------------------------
      1          6           0        0.561409    1.292514    0.026120
      2          6           0        1.412275    0.200916    0.047034
      3          6           0        0.905273   -1.124698   -0.070904
      4          6           0       -0.516495   -1.295514    0.008528
      5          6           0       -1.386680   -0.245887    0.070950
      6          6           0       -0.932648    1.149156   -0.043179
      7          1           0        1.088030    2.291947   -0.268916
      8          1           0       -1.628975    1.890932   -0.144071
      9          1           0       -2.635417   -0.314290    0.109662
     10          1           0       -1.028833   -2.113870   -0.061035
     11          1           0        1.446148   -1.935915   -0.213569
     12          1           0        2.500238    0.322270    0.346637
 ---------------------------------------------------------------------

 SCF Done:  E(RB3LYP) =  -232.182418173     A.U. after   14 cycles

 Excitation energies and oscillator strengths:

 Excited State   1:      Singlet-A      5.0657 eV  244.75 nm  f=0.0011  <S**2>=0.000
      20 -> 22         0.52303
      21 -> 23        -0.46828
 This state for optimization and/or second-order correction.
 Total Energy, E(TD-HF/TD-DFT) =  -231.996255872
 Copying the excited state density for this state as the 1-particle RhoCI density.

 The electronic state is 1-A.
 Alpha  occ. eigenvalues --  -10.20607 -10.20557 -10.20086 -10.19844 -10.19032
 Alpha  occ. eigenvalues --  -10.17911  -0.83590  -0.74360  -0.72923  -0.62016
 Alpha  occ. eigenvalues --   -0.57472  -0.51587  -0.47351  -0.43308  -0.41222
 Alpha  occ. eigenvalues --   -0.40502  -0.36148  -0.35117  -0.31373  -0.24852
 Alpha  occ. eigenvalues --   -0.23523
 Alpha virt. eigenvalues --   -0.01994   0.00075   0.08124   0.11244   0.14472
 Alpha virt. eigenvalues --    0.15317   0.16709   0.17775   0.19385   0.26739
 Alpha virt. eigenvalues --    0.28213   0.29865   0.31835   0.46751   0.50236

 Mulliken charges:
               1
     1  C   -0.103690
     2  C   -0.091318
     3  C   -0.069365
     4  C   -0.056424
     5  C   -0.097124
     6  C   -0.083736
     7  H    0.084989
     8  H    0.092348
     9  H    0.070133
    10  H    0.076823
    11  H    0.083400
    12  H    0.093965
 Sum of Mulliken charges =  -0.00000

 Dipole moment (field-independent basis, Debye):
    X=             -0.0093    Y=             -0.1628    Z=             -0.1868  Tot=              0.2479
 Quadrupole moment (field-independent basis, Debye-Ang):
   XX=            -31.2183   YY=            -32.0391   ZZ=            -38.6642
   XY=             -0.4745   XZ=              0.2951   YZ=             -0.2020

 Normal termination of Gaussian 16 at Fri Nov 10 21:37:19 2023.
