 Gaussian 16, Revision B.01,
 Gaussian 16:  EM64L-G16RevB.01 20-Dec-2017

 ---------------------------------
 # TD=(NStates=1) B3LYP/6-31G(d,p)
 ---------------------------------

 -------
 EMISPCT
 -------
 Symbolic Z-matrix:
 Charge =  0 Multiplicity = 1

                         Standard orientation:
 ---------------------------------------------------------------------
 Center     Atomic      Atomic             Coordinates (Angstroms)
 Number     Number       Type             X           Y           Z
 ---------------------------------------------------------------------
      1          6           0       -1.162496   -0.920998   -0.107322
      2          6           0       -1.352242    0.481431   -0.018342
      3          6           0       -0.270359    1.394370    0.031452
      4          6           0        1.156003    0.885324   -0.103541
      5          6           0        1.369522   -0.493415    0.032994
      6          6           0        0.217806   -1.312847    0.039101
      7          1           0       -1.917750   -1.770805    0.174087
      8          1           0        0.571150   -2.427045    0.061255
      9          1           0        2.423325   -0.945995    0.105350
     10          1           0        1.824708    1.501400    0.041916
     11          1           0       -0.395588    2.512819    0.190440
     12          1           0       -2.255247    0.926439    0.180908
 ---------------------------------------------------------------------

 SCF Done:  E(RB3LYP) =  -232.184304001     A.U. after   14 cycles

 Excitation energies and oscillator strengths:

 Excited State   1:      Singlet-A      5.0478 eV  245.62 nm  f=0.0116  <S**2>=0.000
      20 -> 22         0.40646
      20 -> 23         0.20759
      21 -> 22        -0.39437
      21 -> 23         0.36867
 This state for optimization and/or second-order correction.
 Total Energy, E(TD-HF/TD-DFT) =  -231.998800394
 Copying the excited state density for this state as the 1-particle RhoCI density.

 The electronic state is 1-A.
 Alpha  occ. eigenvalues --  -10.20938 -10.20580 -10.20105 -10.19925 -10.19357
 Alpha  occ. eigenvalues --  -10.18502  -0.83309  -0.74565  -0.72376  -0.60971
 Alpha  occ. eigenvalues --   -0.58289  -0.51193  -0.46487  -0.43347  -0.42292
 Alpha  occ. eigenvalues --   -0.39483  -0.35355  -0.33780  -0.32818  -0.25241
 Alpha  occ. eigenvalues --   -0.23491
 Alpha virt. eigenvalues --   -0.02205   0.00086   0.07772   0.12325   0.13261
 Alpha virt. eigenvalues --    0.14162   0.16454   0.17937   0.19898   0.26130
 Alpha virt. eigenvalues --    0.27942   0.30656   0.31210   0.46512   0.46960

 Mulliken charges:
               1
     1  C   -0.096330
     2  C   -0.081805
     3  C   -0.109400
     4  C   -0.056638
     5  C   -0.082123
     6  C   -0.087038
     7  H    0.101843
     8  H    0.070609
     9  H    0.092979
    10  H    0.067773
    11  H    0.091438
    12  H    0.088693
 Sum of Mulliken charges =  -0.00000

 Dipole moment (field-independent basis, Debye):
    X=              0.1456    Y=              0.1563    Z=              0.4690  Tot=              0.5154
 Quadrupole moment (field-independent basis, Debye-Ang):
   XX=            -31.4432   YY=            -31.7343   ZZ=            -38.8746
   XY=             -0.0839   XZ=             -0.4160   YZ=              0.1437

 Normal termination of Gaussian 16 at Fri Nov 10 20:40:12 2023.
