 Gaussian 16, Revision B.01,
 Gaussian 16:  EM64L-G16RevB.01 20-Dec-2017

 ---------------------------------
 # TD=(NStates=1) B3LYP/6-31G(d,p)
 ---------------------------------

 -------
 EMISPCT
 -------
 Symbolic Z-matrix:
 Charge =  0 Multiplicity = 1

                         Standard orientation:
 ---------------------------------------------------------------------
 Center     Atomic      Atomic             Coordinates (Angstroms)
 Number     Number       Type             X           Y           Z
 ---------------------------------------------------------------------
      1          6           0        1.406508    0.482743    0.036179
      2          6           0        0.222248    1.382578    0.021633
      3          6           0       -1.115384    0.892192   -0.033003
      4          6           0       -1.381292   -0.503681    0.052870
      5          6           0       -0.231744   -1.386373   -0.051655
      6          6           0        1.097025   -0.913245   -0.087546
      7          1           0        2.437431    0.902967    0.218205
      8          1           0        1.981304   -1.540372    0.004499
      9          1           0       -0.532802   -2.489463    0.196987
     10          1           0       -2.365226   -0.698591    0.195094
     11          1           0       -1.877291    1.641263   -0.224326
     12          1           0        0.372418    2.458916   -0.021323
 ---------------------------------------------------------------------

 SCF Done:  E(RB3LYP) =  -232.219709532     A.U. after   13 cycles

 Excitation energies and oscillator strengths:

 Excited State   1:      Singlet-A      5.0471 eV  245.65 nm  f=0.0011  <S**2>=0.000
      20 -> 22         0.46731
      20 -> 23         0.15422
      21 -> 22         0.21303
      21 -> 23        -0.46054
 This state for optimization and/or second-order correction.
 Total Energy, E(TD-HF/TD-DFT) =  -232.034230204
 Copying the excited state density for this state as the 1-particle RhoCI density.

 The electronic state is 1-A.
 Alpha  occ. eigenvalues --  -10.20826 -10.20751 -10.20041 -10.19728 -10.19259
 Alpha  occ. eigenvalues --  -10.19214  -0.82879  -0.73862  -0.72362  -0.60125
 Alpha  occ. eigenvalues --   -0.58705  -0.50691  -0.46779  -0.43496  -0.41678
 Alpha  occ. eigenvalues --   -0.40009  -0.35640  -0.34226  -0.32251  -0.24575
 Alpha  occ. eigenvalues --   -0.23646
 Alpha virt. eigenvalues --   -0.01523  -0.00440   0.08808   0.12583   0.13971
 Alpha virt. eigenvalues --    0.14404   0.16223   0.17497   0.18959   0.27326
 Alpha virt. eigenvalues --    0.27860   0.28988   0.31171   0.47505   0.49769

 Mulliken charges:
               1
     1  C   -0.096160
     2  C   -0.093697
     3  C   -0.087279
     4  C   -0.076309
     5  C   -0.099738
     6  C   -0.089058
     7  H    0.099813
     8  H    0.092622
     9  H    0.086575
    10  H    0.091637
    11  H    0.088431
    12  H    0.083164
 Sum of Mulliken charges =  -0.00000

 Dipole moment (field-independent basis, Debye):
    X=             -0.0232    Y=              0.1690    Z=              0.2420  Tot=              0.2961
 Quadrupole moment (field-independent basis, Debye-Ang):
   XX=            -30.6125   YY=            -32.3032   ZZ=            -38.9384
   XY=              0.0808   XZ=              0.2945   YZ=             -0.6975

 Normal termination of Gaussian 16 at Fri Nov 10 20:35:57 2023.
