 Gaussian 16, Revision B.01,
 Gaussian 16:  EM64L-G16RevB.01 20-Dec-2017

 ---------------------------------
 # TD=(NStates=1) B3LYP/6-31G(d,p)
 ---------------------------------

 -------
 EMISPCT
 -------
 Symbolic Z-matrix:
 Charge =  0 Multiplicity = 1

                         Standard orientation:
 ---------------------------------------------------------------------
 Center     Atomic      Atomic             Coordinates (Angstroms)
 Number     Number       Type             X           Y           Z
 ---------------------------------------------------------------------
      1          6           0        0.939831   -1.004340   -0.008320
      2          6           0       -0.428179   -1.344619   -0.080834
      3          6           0       -1.416281   -0.297540    0.054701
      4          6           0       -0.961122    1.048810   -0.054150
      5          6           0        0.469233    1.367831    0.037790
      6          6           0        1.419782    0.238414    0.036810
      7          1           0        1.809512   -1.874424   -0.065369
      8          1           0        2.470875    0.370185    0.126196
      9          1           0        0.865732    2.486613   -0.086082
     10          1           0       -1.867420    1.788781   -0.275369
     11          1           0       -2.473670   -0.552946    0.456523
     12          1           0       -0.944610   -2.269557   -0.071884
 ---------------------------------------------------------------------

 SCF Done:  E(RB3LYP) =  -232.194187076     A.U. after   13 cycles

 Excitation energies and oscillator strengths:

 Excited State   1:      Singlet-A      5.0421 eV  245.90 nm  f=0.0016  <S**2>=0.000
      20 -> 22         0.51339
      21 -> 22         0.15223
      21 -> 23         0.45110
 This state for optimization and/or second-order correction.
 Total Energy, E(TD-HF/TD-DFT) =  -232.008891969
 Copying the excited state density for this state as the 1-particle RhoCI density.

 The electronic state is 1-A.
 Alpha  occ. eigenvalues --  -10.21811 -10.21071 -10.20335 -10.20216 -10.19548
 Alpha  occ. eigenvalues --  -10.19342  -0.83740  -0.74286  -0.72196  -0.59994
 Alpha  occ. eigenvalues --   -0.57954  -0.50159  -0.45131  -0.43991  -0.41250
 Alpha  occ. eigenvalues --   -0.39330  -0.36516  -0.34118  -0.31713  -0.24683
 Alpha  occ. eigenvalues --   -0.23770
 Alpha virt. eigenvalues --   -0.01902  -0.00223   0.07074   0.10883   0.12341
 Alpha virt. eigenvalues --    0.13827   0.14588   0.17322   0.18063   0.27054
 Alpha virt. eigenvalues --    0.28568   0.29136   0.32020   0.47098   0.48838

 Mulliken charges:
               1
     1  C   -0.069325
     2  C   -0.084724
     3  C   -0.106512
     4  C   -0.092267
     5  C   -0.109477
     6  C   -0.071163
     7  H    0.067974
     8  H    0.095562
     9  H    0.090376
    10  H    0.086769
    11  H    0.099388
    12  H    0.093399
 Sum of Mulliken charges =  -0.00000

 Dipole moment (field-independent basis, Debye):
    X=             -0.0778    Y=             -0.0684    Z=              0.0651  Tot=              0.1224
 Quadrupole moment (field-independent basis, Debye-Ang):
   XX=            -30.8570   YY=            -32.8286   ZZ=            -38.9880
   XY=              0.6622   XZ=             -0.3416   YZ=             -0.5128

 Normal termination of Gaussian 16 at Fri Nov 10 20:46:01 2023.
