 Gaussian 16, Revision B.01,
 Gaussian 16:  EM64L-G16RevB.01 20-Dec-2017

 ---------------------------------
 # TD=(NStates=1) B3LYP/6-31G(d,p)
 ---------------------------------

 -------
 EMISPCT
 -------
 Symbolic Z-matrix:
 Charge =  0 Multiplicity = 1

                         Standard orientation:
 ---------------------------------------------------------------------
 Center     Atomic      Atomic             Coordinates (Angstroms)
 Number     Number       Type             X           Y           Z
 ---------------------------------------------------------------------
      1          6           0       -0.438585   -1.279636   -0.012887
      2          6           0       -1.495514   -0.204070   -0.051426
      3          6           0       -0.937203    1.048082    0.143144
      4          6           0        0.546023    1.364734    0.006739
      5          6           0        1.457928    0.191529   -0.071146
      6          6           0        0.898361   -1.069864    0.054763
      7          1           0       -0.805826   -2.425751   -0.147725
      8          1           0        1.348694   -1.964411    0.283440
      9          1           0        2.576773    0.261888   -0.113618
     10          1           0        0.854146    2.362004   -0.199241
     11          1           0       -1.539093    1.986074   -0.043799
     12          1           0       -2.620754   -0.524448   -0.194176
 ---------------------------------------------------------------------

 SCF Done:  E(RB3LYP) =  -232.190901264     A.U. after   14 cycles

 Excitation energies and oscillator strengths:

 Excited State   1:      Singlet-A      5.0157 eV  247.19 nm  f=0.0020  <S**2>=0.000
      20 -> 22         0.46526
      21 -> 22         0.13953
      21 -> 23         0.50849
 This state for optimization and/or second-order correction.
 Total Energy, E(TD-HF/TD-DFT) =  -232.006578002
 Copying the excited state density for this state as the 1-particle RhoCI density.

 The electronic state is 1-A.
 Alpha  occ. eigenvalues --  -10.21306 -10.21034 -10.20667 -10.20549 -10.20350
 Alpha  occ. eigenvalues --  -10.18001  -0.83298  -0.74358  -0.71917  -0.60133
 Alpha  occ. eigenvalues --   -0.58009  -0.50682  -0.45429  -0.43465  -0.41314
 Alpha  occ. eigenvalues --   -0.40544  -0.35134  -0.34345  -0.31818  -0.25271
 Alpha  occ. eigenvalues --   -0.23159
 Alpha virt. eigenvalues --   -0.02032  -0.00372   0.07548   0.11844   0.13230
 Alpha virt. eigenvalues --    0.13930   0.15184   0.17273   0.18491   0.24854
 Alpha virt. eigenvalues --    0.27052   0.30078   0.32387   0.45632   0.46145

 Mulliken charges:
               1
     1  C   -0.105736
     2  C   -0.077759
     3  C   -0.106786
     4  C   -0.109042
     5  C   -0.100377
     6  C   -0.038568
     7  H    0.067652
     8  H    0.090113
     9  H    0.091250
    10  H    0.103285
    11  H    0.082209
    12  H    0.103759
 Sum of Mulliken charges =  -0.00000

 Dipole moment (field-independent basis, Debye):
    X=              0.0347    Y=             -0.0785    Z=             -0.2624  Tot=              0.2761
 Quadrupole moment (field-independent basis, Debye-Ang):
   XX=            -31.5997   YY=            -31.6733   ZZ=            -39.0327
   XY=              0.2402   XZ=              0.5077   YZ=             -0.7005

 Normal termination of Gaussian 16 at Fri Nov 10 20:30:33 2023.
