 Gaussian 16, Revision B.01,
 Gaussian 16:  EM64L-G16RevB.01 20-Dec-2017

 ---------------------------------
 # TD=(NStates=1) B3LYP/6-31G(d,p)
 ---------------------------------

 -------
 EMISPCT
 -------
 Symbolic Z-matrix:
 Charge =  0 Multiplicity = 1

                         Standard orientation:
 ---------------------------------------------------------------------
 Center     Atomic      Atomic             Coordinates (Angstroms)
 Number     Number       Type             X           Y           Z
 ---------------------------------------------------------------------
      1          6           0        1.430120    0.151253    0.105748
      2          6           0        0.512966    1.257942    0.031120
      3          6           0       -0.849668    1.124006   -0.103622
      4          6           0       -1.434294   -0.174245   -0.037170
      5          6           0       -0.556763   -1.265322    0.062556
      6          6           0        0.900556   -1.110684   -0.094530
      7          1           0        2.537872    0.334147   -0.112059
      8          1           0        1.353688   -2.014685   -0.041503
      9          1           0       -0.994934   -2.114486   -0.048862
     10          1           0       -2.537576   -0.421241    0.341785
     11          1           0       -1.489511    2.022783    0.021874
     12          1           0        1.112959    2.295784    0.054155
 ---------------------------------------------------------------------

 SCF Done:  E(RB3LYP) =  -232.193821605     A.U. after   13 cycles

 Excitation energies and oscillator strengths:

 Excited State   1:      Singlet-A      5.1616 eV  240.20 nm  f=0.0037  <S**2>=0.000
      20 -> 22         0.12016
      20 -> 23        -0.42710
      21 -> 22         0.53472
      21 -> 23         0.12976
 This state for optimization and/or second-order correction.
 Total Energy, E(TD-HF/TD-DFT) =  -232.004135621
 Copying the excited state density for this state as the 1-particle RhoCI density.

 The electronic state is 1-A.
 Alpha  occ. eigenvalues --  -10.20386 -10.20250 -10.19968 -10.19671 -10.18987
 Alpha  occ. eigenvalues --  -10.17940  -0.84174  -0.74142  -0.73676  -0.60389
 Alpha  occ. eigenvalues --   -0.59005  -0.51056  -0.46327  -0.43487  -0.41772
 Alpha  occ. eigenvalues --   -0.40108  -0.35679  -0.33572  -0.32964  -0.25121
 Alpha  occ. eigenvalues --   -0.24211
 Alpha virt. eigenvalues --   -0.01327  -0.00797   0.07537   0.12070   0.13217
 Alpha virt. eigenvalues --    0.15516   0.16594   0.17291   0.20340   0.27010
 Alpha virt. eigenvalues --    0.29142   0.30607   0.31816   0.45926   0.47877

 Mulliken charges:
               1
     1  C   -0.093602
     2  C   -0.082184
     3  C   -0.084142
     4  C   -0.102959
     5  C   -0.078852
     6  C   -0.073220
     7  H    0.090278
     8  H    0.088154
     9  H    0.078137
    10  H    0.088787
    11  H    0.090511
    12  H    0.079091
 Sum of Mulliken charges =  -0.00000

 Dipole moment (field-independent basis, Debye):
    X=              0.0177    Y=             -0.1679    Z=              0.0996  Tot=              0.1960
 Quadrupole moment (field-independent basis, Debye-Ang):
   XX=            -31.7888   YY=            -31.9445   ZZ=            -38.6409
   XY=              0.3072   XZ=             -0.9531   YZ=              0.1461

 Normal termination of Gaussian 16 at Fri Nov 10 21:34:39 2023.
