 Gaussian 16, Revision B.01,
 Gaussian 16:  EM64L-G16RevB.01 20-Dec-2017

 ---------------------------------
 # TD=(NStates=1) B3LYP/6-31G(d,p)
 ---------------------------------

 -------
 EMISPCT
 -------
 Symbolic Z-matrix:
 Charge =  0 Multiplicity = 1

                         Standard orientation:
 ---------------------------------------------------------------------
 Center     Atomic      Atomic             Coordinates (Angstroms)
 Number     Number       Type             X           Y           Z
 ---------------------------------------------------------------------
      1          6           0        0.231642   -1.369610   -0.039293
      2          6           0       -1.145231   -0.908657    0.004381
      3          6           0       -1.379993    0.539477   -0.018188
      4          6           0       -0.192269    1.379227    0.019248
      5          6           0        1.071967    0.834716   -0.065336
      6          6           0        1.369198   -0.472831    0.048716
      7          1           0        0.295376   -2.301764   -0.008114
      8          1           0        2.271850   -1.026934    0.092933
      9          1           0        2.104016    1.512995   -0.057219
     10          1           0       -0.282520    2.451635    0.227262
     11          1           0       -2.278662    1.010726   -0.092897
     12          1           0       -1.841944   -1.660596    0.140872
 ---------------------------------------------------------------------

 SCF Done:  E(RB3LYP) =  -232.188448354     A.U. after   13 cycles

 Excitation energies and oscillator strengths:

 Excited State   1:      Singlet-A      5.1118 eV  242.54 nm  f=0.0028  <S**2>=0.000
      20 -> 22         0.42480
      20 -> 23         0.22446
      21 -> 22         0.32113
      21 -> 23        -0.40685
 This state for optimization and/or second-order correction.
 Total Energy, E(TD-HF/TD-DFT) =  -232.000591821
 Copying the excited state density for this state as the 1-particle RhoCI density.

 The electronic state is 1-A.
 Alpha  occ. eigenvalues --  -10.19854 -10.19760 -10.19526 -10.19513 -10.18847
 Alpha  occ. eigenvalues --  -10.17789  -0.83778  -0.73894  -0.73755  -0.61078
 Alpha  occ. eigenvalues --   -0.59575  -0.51483  -0.48141  -0.43479  -0.41898
 Alpha  occ. eigenvalues --   -0.40632  -0.35903  -0.34693  -0.32171  -0.24569
 Alpha  occ. eigenvalues --   -0.23620
 Alpha virt. eigenvalues --   -0.01256  -0.00065   0.08415   0.13521   0.14999
 Alpha virt. eigenvalues --    0.15633   0.16666   0.17711   0.21119   0.27892
 Alpha virt. eigenvalues --    0.28867   0.29716   0.31964   0.45946   0.50296

 Mulliken charges:
               1
     1  C   -0.071058
     2  C   -0.092132
     3  C   -0.090459
     4  C   -0.093065
     5  C   -0.082074
     6  C   -0.058371
     7  H    0.059511
     8  H    0.095067
     9  H    0.060870
    10  H    0.093946
    11  H    0.089573
    12  H    0.088192
 Sum of Mulliken charges =  -0.00000

 Dipole moment (field-independent basis, Debye):
    X=             -0.0873    Y=             -0.2572    Z=              0.2078  Tot=              0.3419
 Quadrupole moment (field-independent basis, Debye-Ang):
   XX=            -31.6203   YY=            -31.2778   ZZ=            -38.5929
   XY=             -0.6624   XZ=              0.0156   YZ=              0.0590

 Normal termination of Gaussian 16 at Fri Nov 10 22:55:47 2023.
