 Gaussian 16, Revision B.01,
 Gaussian 16:  EM64L-G16RevB.01 20-Dec-2017

 ---------------------------------
 # TD=(NStates=1) B3LYP/6-31G(d,p)
 ---------------------------------

 -------
 EMISPCT
 -------
 Symbolic Z-matrix:
 Charge =  0 Multiplicity = 1

                         Standard orientation:
 ---------------------------------------------------------------------
 Center     Atomic      Atomic             Coordinates (Angstroms)
 Number     Number       Type             X           Y           Z
 ---------------------------------------------------------------------
      1          6           0        1.163694    0.815696   -0.065678
      2          6           0       -0.161202    1.421477    0.021223
      3          6           0       -1.296321    0.532503    0.084301
      4          6           0       -1.129805   -0.841508   -0.069421
      5          6           0        0.150581   -1.350928    0.006366
      6          6           0        1.298678   -0.547406   -0.012069
      7          1           0        2.133428    1.408633    0.123654
      8          1           0        2.345398   -1.033806    0.070516
      9          1           0        0.252004   -2.529833    0.172711
     10          1           0       -2.044625   -1.383284   -0.030043
     11          1           0       -2.359370    0.827154   -0.084198
     12          1           0       -0.480576    2.532138   -0.040963
 ---------------------------------------------------------------------

 SCF Done:  E(RB3LYP) =  -232.219663642     A.U. after   13 cycles

 Excitation energies and oscillator strengths:

 Excited State   1:      Singlet-A      5.3241 eV  232.87 nm  f=0.0009  <S**2>=0.000
      20 -> 22        -0.46898
      21 -> 23         0.52546
 This state for optimization and/or second-order correction.
 Total Energy, E(TD-HF/TD-DFT) =  -232.024006376
 Copying the excited state density for this state as the 1-particle RhoCI density.

 The electronic state is 1-A.
 Alpha  occ. eigenvalues --  -10.20975 -10.20425 -10.19940 -10.19821 -10.19338
 Alpha  occ. eigenvalues --  -10.18508  -0.84524  -0.74700  -0.72671  -0.59992
 Alpha  occ. eigenvalues --   -0.58451  -0.50627  -0.44568  -0.44253  -0.41457
 Alpha  occ. eigenvalues --   -0.40102  -0.36055  -0.33678  -0.32843  -0.25433
 Alpha  occ. eigenvalues --   -0.24056
 Alpha virt. eigenvalues --   -0.00975  -0.00146   0.07011   0.12401   0.12892
 Alpha virt. eigenvalues --    0.14666   0.14902   0.17162   0.19500   0.28014
 Alpha virt. eigenvalues --    0.28744   0.30909   0.32355   0.46543   0.49603

 Mulliken charges:
               1
     1  C   -0.097697
     2  C   -0.103602
     3  C   -0.093572
     4  C   -0.069104
     5  C   -0.084427
     6  C   -0.074983
     7  H    0.088766
     8  H    0.092714
     9  H    0.072757
    10  H    0.089604
    11  H    0.084868
    12  H    0.094676
 Sum of Mulliken charges =  -0.00000

 Dipole moment (field-independent basis, Debye):
    X=             -0.1098    Y=             -0.0737    Z=              0.1028  Tot=              0.1675
 Quadrupole moment (field-independent basis, Debye-Ang):
   XX=            -30.9980   YY=            -32.7100   ZZ=            -38.9047
   XY=             -0.1419   XZ=              0.6448   YZ=             -0.3574

 Normal termination of Gaussian 16 at Fri Nov 10 20:13:02 2023.
