 Gaussian 16, Revision B.01,
 Gaussian 16:  EM64L-G16RevB.01 20-Dec-2017

 ---------------------------------
 # TD=(NStates=1) B3LYP/6-31G(d,p)
 ---------------------------------

 -------
 EMISPCT
 -------
 Symbolic Z-matrix:
 Charge =  0 Multiplicity = 1

                         Standard orientation:
 ---------------------------------------------------------------------
 Center     Atomic      Atomic             Coordinates (Angstroms)
 Number     Number       Type             X           Y           Z
 ---------------------------------------------------------------------
      1          6           0       -1.274046   -0.587005   -0.105750
      2          6           0       -0.099892   -1.350020    0.107224
      3          6           0        1.199483   -0.847659   -0.043143
      4          6           0        1.258701    0.642337   -0.049800
      5          6           0        0.159421    1.344355    0.037803
      6          6           0       -1.209934    0.784113   -0.008673
      7          1           0       -2.344384   -1.108332   -0.167564
      8          1           0       -2.136198    1.388479    0.155433
      9          1           0        0.203148    2.473189    0.231117
     10          1           0        2.270255    1.189451   -0.116378
     11          1           0        1.979217   -1.462065    0.021899
     12          1           0       -0.174436   -2.397446    0.249530
 ---------------------------------------------------------------------

 SCF Done:  E(RB3LYP) =  -232.212256659     A.U. after   13 cycles

 Excitation energies and oscillator strengths:

 Excited State   1:      Singlet-A      5.3527 eV  231.63 nm  f=0.0033  <S**2>=0.000
      20 -> 22         0.50221
      20 -> 23        -0.10633
      21 -> 22        -0.19010
      21 -> 23        -0.44705
 This state for optimization and/or second-order correction.
 Total Energy, E(TD-HF/TD-DFT) =  -232.015547855
 Copying the excited state density for this state as the 1-particle RhoCI density.

 The electronic state is 1-A.
 Alpha  occ. eigenvalues --  -10.19986 -10.19868 -10.19528 -10.19085 -10.19052
 Alpha  occ. eigenvalues --  -10.18830  -0.84280  -0.74254  -0.73524  -0.60588
 Alpha  occ. eigenvalues --   -0.57844  -0.51149  -0.46235  -0.43642  -0.41271
 Alpha  occ. eigenvalues --   -0.40504  -0.36160  -0.35487  -0.31373  -0.25195
 Alpha  occ. eigenvalues --   -0.23887
 Alpha virt. eigenvalues --   -0.01303   0.00864   0.08020   0.12027   0.14468
 Alpha virt. eigenvalues --    0.14900   0.16753   0.17189   0.19209   0.27272
 Alpha virt. eigenvalues --    0.29127   0.30738   0.33196   0.46812   0.48929

 Mulliken charges:
               1
     1  C   -0.082400
     2  C   -0.087268
     3  C   -0.079561
     4  C   -0.089057
     5  C   -0.077023
     6  C   -0.092679
     7  H    0.079089
     8  H    0.097573
     9  H    0.078568
    10  H    0.084218
    11  H    0.086670
    12  H    0.081869
 Sum of Mulliken charges =  -0.00000

 Dipole moment (field-independent basis, Debye):
    X=             -0.0255    Y=             -0.1022    Z=              0.2382  Tot=              0.2604
 Quadrupole moment (field-independent basis, Debye-Ang):
   XX=            -31.3031   YY=            -31.9533   ZZ=            -38.6522
   XY=             -0.5078   XZ=             -0.2060   YZ=              0.1439

 Normal termination of Gaussian 16 at Fri Nov 10 21:42:29 2023.
