 Gaussian 16, Revision B.01,
 Gaussian 16:  EM64L-G16RevB.01 20-Dec-2017

 ---------------------------------
 # TD=(NStates=1) B3LYP/6-31G(d,p)
 ---------------------------------

 -------
 EMISPCT
 -------
 Symbolic Z-matrix:
 Charge =  0 Multiplicity = 1

                         Standard orientation:
 ---------------------------------------------------------------------
 Center     Atomic      Atomic             Coordinates (Angstroms)
 Number     Number       Type             X           Y           Z
 ---------------------------------------------------------------------
      1          6           0       -1.433026    0.178355   -0.048718
      2          6           0       -0.857138   -1.121050   -0.050667
      3          6           0        0.566649   -1.302869    0.018116
      4          6           0        1.461517   -0.179194   -0.020439
      5          6           0        0.880098    1.135400   -0.000489
      6          6           0       -0.553525    1.298420   -0.030868
      7          1           0       -2.604999    0.112576    0.333872
      8          1           0       -1.259469    2.164766    0.101455
      9          1           0        1.617659    1.947165    0.220768
     10          1           0        2.398746   -0.338046   -0.174963
     11          1           0        0.974411   -2.089484    0.353104
     12          1           0       -1.513800   -1.851353   -0.035843
 ---------------------------------------------------------------------

 SCF Done:  E(RB3LYP) =  -232.164758279     A.U. after   13 cycles

 Excitation energies and oscillator strengths:

 Excited State   1:      Singlet-A      4.9329 eV  251.34 nm  f=0.0005  <S**2>=0.000
      20 -> 22         0.29047
      20 -> 23         0.38150
      21 -> 22         0.42562
      21 -> 23        -0.29750
 This state for optimization and/or second-order correction.
 Total Energy, E(TD-HF/TD-DFT) =  -231.983478832
 Copying the excited state density for this state as the 1-particle RhoCI density.

 The electronic state is 1-A.
 Alpha  occ. eigenvalues --  -10.20670 -10.20423 -10.20324 -10.18602 -10.18289
 Alpha  occ. eigenvalues --  -10.18173  -0.83285  -0.74291  -0.73249  -0.61307
 Alpha  occ. eigenvalues --   -0.59383  -0.51549  -0.47446  -0.44157  -0.41833
 Alpha  occ. eigenvalues --   -0.40119  -0.35237  -0.34600  -0.32406  -0.24064
 Alpha  occ. eigenvalues --   -0.23750
 Alpha virt. eigenvalues --   -0.01336  -0.01003   0.07286   0.12827   0.13738
 Alpha virt. eigenvalues --    0.15212   0.16832   0.19524   0.20379   0.27439
 Alpha virt. eigenvalues --    0.28458   0.29782   0.31346   0.47005   0.49252

 Mulliken charges:
               1
     1  C   -0.103178
     2  C   -0.064506
     3  C   -0.070033
     4  C   -0.081269
     5  C   -0.098581
     6  C   -0.094721
     7  H    0.085766
     8  H    0.094003
     9  H    0.092198
    10  H    0.084975
    11  H    0.080095
    12  H    0.075251
 Sum of Mulliken charges =  -0.00000

 Dipole moment (field-independent basis, Debye):
    X=              0.0948    Y=             -0.2613    Z=              0.4982  Tot=              0.5705
 Quadrupole moment (field-independent basis, Debye-Ang):
   XX=            -30.4359   YY=            -32.8979   ZZ=            -38.4596
   XY=              0.0732   XZ=             -0.5247   YZ=             -0.0202

 Normal termination of Gaussian 16 at Fri Nov 10 22:29:51 2023.
