 Gaussian 16, Revision B.01,
 Gaussian 16:  EM64L-G16RevB.01 20-Dec-2017

 ---------------------------------
 # TD=(NStates=1) B3LYP/6-31G(d,p)
 ---------------------------------

 -------
 EMISPCT
 -------
 Symbolic Z-matrix:
 Charge =  0 Multiplicity = 1

                         Standard orientation:
 ---------------------------------------------------------------------
 Center     Atomic      Atomic             Coordinates (Angstroms)
 Number     Number       Type             X           Y           Z
 ---------------------------------------------------------------------
      1          6           0        1.349012   -0.404691    0.098543
      2          6           0        0.998438    1.006050    0.023708
      3          6           0       -0.376139    1.350331   -0.103288
      4          6           0       -1.432897    0.360655    0.094061
      5          6           0       -0.953752   -0.999481   -0.030880
      6          6           0        0.381004   -1.355174   -0.114692
      7          1           0        2.409543   -0.396306    0.330378
      8          1           0        0.663759   -2.379498   -0.121662
      9          1           0       -1.712236   -1.666680    0.006111
     10          1           0       -2.555762    0.610694    0.326273
     11          1           0       -0.451812    2.409388   -0.213110
     12          1           0        1.852508    1.676253   -0.132707
 ---------------------------------------------------------------------

 SCF Done:  E(RB3LYP) =  -232.209981444     A.U. after   14 cycles

 Excitation energies and oscillator strengths:

 Excited State   1:      Singlet-A      5.1357 eV  241.42 nm  f=0.0013  <S**2>=0.000
      20 -> 22         0.47535
      20 -> 23         0.15787
      21 -> 22        -0.22633
      21 -> 23         0.44446
 This state for optimization and/or second-order correction.
 Total Energy, E(TD-HF/TD-DFT) =  -232.021247203
 Copying the excited state density for this state as the 1-particle RhoCI density.

 The electronic state is 1-A.
 Alpha  occ. eigenvalues --  -10.21045 -10.19497 -10.19061 -10.19011 -10.18839
 Alpha  occ. eigenvalues --  -10.18743  -0.83760  -0.73853  -0.73209  -0.60294
 Alpha  occ. eigenvalues --   -0.59150  -0.51209  -0.46430  -0.44293  -0.41729
 Alpha  occ. eigenvalues --   -0.40183  -0.36240  -0.34306  -0.31686  -0.24555
 Alpha  occ. eigenvalues --   -0.23659
 Alpha virt. eigenvalues --   -0.01225   0.00017   0.09011   0.12108   0.14437
 Alpha virt. eigenvalues --    0.15112   0.16149   0.18773   0.19545   0.27280
 Alpha virt. eigenvalues --    0.28189   0.30658   0.32083   0.46887   0.49314

 Mulliken charges:
               1
     1  C   -0.079757
     2  C   -0.105843
     3  C   -0.089197
     4  C   -0.100922
     5  C   -0.087007
     6  C   -0.074337
     7  H    0.090421
     8  H    0.087905
     9  H    0.085071
    10  H    0.098840
    11  H    0.082556
    12  H    0.092270
 Sum of Mulliken charges =  -0.00000

 Dipole moment (field-independent basis, Debye):
    X=              0.0536    Y=             -0.0286    Z=              0.1116  Tot=              0.1271
 Quadrupole moment (field-independent basis, Debye-Ang):
   XX=            -30.8413   YY=            -32.2026   ZZ=            -38.6136
   XY=              0.7266   XZ=             -0.2994   YZ=             -0.2912

 Normal termination of Gaussian 16 at Fri Nov 10 22:21:08 2023.
