 Gaussian 16, Revision B.01,
 Gaussian 16:  EM64L-G16RevB.01 20-Dec-2017

 ---------------------------------
 # TD=(NStates=1) B3LYP/6-31G(d,p)
 ---------------------------------

 -------
 EMISPCT
 -------
 Symbolic Z-matrix:
 Charge =  0 Multiplicity = 1

                         Standard orientation:
 ---------------------------------------------------------------------
 Center     Atomic      Atomic             Coordinates (Angstroms)
 Number     Number       Type             X           Y           Z
 ---------------------------------------------------------------------
      1          6           0        1.204909    0.746480    0.012251
      2          6           0        1.317899   -0.680373   -0.043200
      3          6           0        0.023425   -1.432259   -0.096821
      4          6           0       -1.198923   -0.727380   -0.025095
      5          6           0       -1.276310    0.664831    0.104403
      6          6           0       -0.048164    1.387730   -0.045732
      7          1           0        2.064716    1.415432   -0.018670
      8          1           0        0.044173    2.507460   -0.291725
      9          1           0       -2.200393    1.170161    0.301715
     10          1           0       -2.285504   -1.214971   -0.101656
     11          1           0       -0.009680   -2.381470    0.072699
     12          1           0        2.249674   -1.250787    0.602799
 ---------------------------------------------------------------------

 SCF Done:  E(RB3LYP) =  -232.184266567     A.U. after   14 cycles

 Excitation energies and oscillator strengths:

 Excited State   1:      Singlet-A      4.8366 eV  256.35 nm  f=0.0077  <S**2>=0.000
      20 -> 22         0.49962
      20 -> 23         0.14554
      21 -> 22        -0.30439
      21 -> 23         0.36851
 This state for optimization and/or second-order correction.
 Total Energy, E(TD-HF/TD-DFT) =  -232.006524737
 Copying the excited state density for this state as the 1-particle RhoCI density.

 The electronic state is 1-A.
 Alpha  occ. eigenvalues --  -10.21698 -10.20517 -10.20164 -10.19844 -10.19586
 Alpha  occ. eigenvalues --  -10.19242  -0.83528  -0.73891  -0.72992  -0.60264
 Alpha  occ. eigenvalues --   -0.58277  -0.51305  -0.45170  -0.42949  -0.41289
 Alpha  occ. eigenvalues --   -0.40867  -0.36601  -0.33685  -0.31929  -0.24674
 Alpha  occ. eigenvalues --   -0.23760
 Alpha virt. eigenvalues --   -0.02993  -0.00269   0.08100   0.09445   0.12447
 Alpha virt. eigenvalues --    0.14678   0.16911   0.17813   0.18650   0.26747
 Alpha virt. eigenvalues --    0.28568   0.29810   0.31735   0.47019   0.49273

 Mulliken charges:
               1
     1  C   -0.081590
     2  C   -0.113772
     3  C   -0.082382
     4  C   -0.083165
     5  C   -0.078631
     6  C   -0.086366
     7  H    0.090947
     8  H    0.086380
     9  H    0.098151
    10  H    0.080312
    11  H    0.087976
    12  H    0.082141
 Sum of Mulliken charges =  -0.00000

 Dipole moment (field-independent basis, Debye):
    X=             -0.3671    Y=              0.2250    Z=              0.3573  Tot=              0.5595
 Quadrupole moment (field-independent basis, Debye-Ang):
   XX=            -32.1850   YY=            -31.9863   ZZ=            -38.6117
   XY=              0.3047   XZ=              0.6120   YZ=             -0.9727

 Normal termination of Gaussian 16 at Fri Nov 10 19:55:20 2023.
