 Gaussian 16, Revision B.01,
 Gaussian 16:  EM64L-G16RevB.01 20-Dec-2017

 ---------------------------------
 # TD=(NStates=1) B3LYP/6-31G(d,p)
 ---------------------------------

 -------
 EMISPCT
 -------
 Symbolic Z-matrix:
 Charge =  0 Multiplicity = 1

                         Standard orientation:
 ---------------------------------------------------------------------
 Center     Atomic      Atomic             Coordinates (Angstroms)
 Number     Number       Type             X           Y           Z
 ---------------------------------------------------------------------
      1          6           0       -0.097409    1.387971   -0.067933
      2          6           0       -1.244284    0.687411   -0.081576
      3          6           0       -1.238223   -0.793607    0.060944
      4          6           0        0.051513   -1.355139   -0.032961
      5          6           0        1.251360   -0.651650   -0.083772
      6          6           0        1.279890    0.741163    0.146583
      7          1           0       -0.112509    2.499087   -0.147285
      8          1           0        2.122679    1.206387    0.113034
      9          1           0        2.223856   -1.156401    0.010443
     10          1           0        0.080532   -2.451202   -0.063028
     11          1           0       -2.063822   -1.397515    0.189929
     12          1           0       -2.267815    1.202754    0.249193
 ---------------------------------------------------------------------

 SCF Done:  E(RB3LYP) =  -232.198007270     A.U. after   13 cycles

 Excitation energies and oscillator strengths:

 Excited State   1:      Singlet-A      5.0628 eV  244.89 nm  f=0.0063  <S**2>=0.000
      20 -> 22         0.51743
      20 -> 23        -0.12609
      21 -> 22        -0.23562
      21 -> 23        -0.39934
 This state for optimization and/or second-order correction.
 Total Energy, E(TD-HF/TD-DFT) =  -232.011951943
 Copying the excited state density for this state as the 1-particle RhoCI density.

 The electronic state is 1-A.
 Alpha  occ. eigenvalues --  -10.20143 -10.20000 -10.19549 -10.19326 -10.19214
 Alpha  occ. eigenvalues --  -10.19006  -0.83565  -0.74108  -0.73265  -0.61517
 Alpha  occ. eigenvalues --   -0.57658  -0.51125  -0.47719  -0.43510  -0.41202
 Alpha  occ. eigenvalues --   -0.39894  -0.36635  -0.35389  -0.30965  -0.24983
 Alpha  occ. eigenvalues --   -0.23703
 Alpha virt. eigenvalues --   -0.02312   0.00225   0.09052   0.12075   0.14394
 Alpha virt. eigenvalues --    0.15566   0.16435   0.18011   0.19687   0.25588
 Alpha virt. eigenvalues --    0.28823   0.28990   0.33146   0.46508   0.47221

 Mulliken charges:
               1
     1  C   -0.101593
     2  C   -0.092301
     3  C   -0.080181
     4  C   -0.077645
     5  C   -0.091585
     6  C   -0.067423
     7  H    0.087462
     8  H    0.082813
     9  H    0.086416
    10  H    0.078054
    11  H    0.093978
    12  H    0.082006
 Sum of Mulliken charges =  -0.00000

 Dipole moment (field-independent basis, Debye):
    X=              0.1401    Y=             -0.1135    Z=              0.2379  Tot=              0.2985
 Quadrupole moment (field-independent basis, Debye-Ang):
   XX=            -31.1772   YY=            -32.0325   ZZ=            -38.6762
   XY=              0.7358   XZ=             -0.5772   YZ=             -0.0469

 Normal termination of Gaussian 16 at Fri Nov 10 22:16:33 2023.
