 Gaussian 16, Revision B.01,
 Gaussian 16:  EM64L-G16RevB.01 20-Dec-2017

 ---------------------------------
 # TD=(NStates=1) B3LYP/6-31G(d,p)
 ---------------------------------

 -------
 EMISPCT
 -------
 Symbolic Z-matrix:
 Charge =  0 Multiplicity = 1

                         Standard orientation:
 ---------------------------------------------------------------------
 Center     Atomic      Atomic             Coordinates (Angstroms)
 Number     Number       Type             X           Y           Z
 ---------------------------------------------------------------------
      1          6           0        0.801864    1.176227   -0.084223
      2          6           0       -0.655211    1.246937    0.081903
      3          6           0       -1.424169    0.069705   -0.044784
      4          6           0       -0.764988   -1.191985   -0.091423
      5          6           0        0.637758   -1.205357    0.050376
      6          6           0        1.410207   -0.112016    0.047979
      7          1           0        1.235728    2.171624   -0.173064
      8          1           0        2.580998   -0.085478   -0.105835
      9          1           0        1.212224   -2.144038    0.236996
     10          1           0       -1.392543   -1.980544   -0.065108
     11          1           0       -2.456097    0.081583    0.114705
     12          1           0       -1.213079    2.055789    0.233336
 ---------------------------------------------------------------------

 SCF Done:  E(RB3LYP) =  -232.211887851     A.U. after   13 cycles

 Excitation energies and oscillator strengths:

 Excited State   1:      Singlet-A      5.2373 eV  236.73 nm  f=0.0013  <S**2>=0.000
      20 -> 22         0.50427
      21 -> 22         0.14151
      21 -> 23        -0.46653
 This state for optimization and/or second-order correction.
 Total Energy, E(TD-HF/TD-DFT) =  -232.019421232
 Copying the excited state density for this state as the 1-particle RhoCI density.

 The electronic state is 1-A.
 Alpha  occ. eigenvalues --  -10.19897 -10.19791 -10.18993 -10.18552 -10.18447
 Alpha  occ. eigenvalues --  -10.18303  -0.84159  -0.74592  -0.73197  -0.61064
 Alpha  occ. eigenvalues --   -0.58833  -0.51743  -0.47172  -0.43733  -0.41688
 Alpha  occ. eigenvalues --   -0.41036  -0.35825  -0.34196  -0.32652  -0.24967
 Alpha  occ. eigenvalues --   -0.23667
 Alpha virt. eigenvalues --   -0.01354   0.00455   0.08938   0.13985   0.14626
 Alpha virt. eigenvalues --    0.15487   0.16651   0.17690   0.20946   0.28408
 Alpha virt. eigenvalues --    0.29668   0.30117   0.31898   0.46575   0.51597

 Mulliken charges:
               1
     1  C   -0.098923
     2  C   -0.075156
     3  C   -0.095255
     4  C   -0.069937
     5  C   -0.083346
     6  C   -0.086451
     7  H    0.092695
     8  H    0.088392
     9  H    0.083458
    10  H    0.082188
    11  H    0.085144
    12  H    0.077190
 Sum of Mulliken charges =  -0.00000

 Dipole moment (field-independent basis, Debye):
    X=             -0.2054    Y=              0.0858    Z=              0.1477  Tot=              0.2671
 Quadrupole moment (field-independent basis, Debye-Ang):
   XX=            -31.1641   YY=            -31.8873   ZZ=            -38.4843
   XY=              0.1766   XZ=             -0.6116   YZ=             -0.1873

 Normal termination of Gaussian 16 at Fri Nov 10 20:02:56 2023.
