 Gaussian 16, Revision B.01,
 Gaussian 16:  EM64L-G16RevB.01 20-Dec-2017

 ---------------------------------
 # TD=(NStates=1) B3LYP/6-31G(d,p)
 ---------------------------------

 -------
 EMISPCT
 -------
 Symbolic Z-matrix:
 Charge =  0 Multiplicity = 1

                         Standard orientation:
 ---------------------------------------------------------------------
 Center     Atomic      Atomic             Coordinates (Angstroms)
 Number     Number       Type             X           Y           Z
 ---------------------------------------------------------------------
      1          6           0        1.420774    0.452721   -0.067463
      2          6           0        0.239733    1.313829   -0.061923
      3          6           0       -1.105268    0.912473    0.103675
      4          6           0       -1.397951   -0.454668   -0.098174
      5          6           0       -0.286098   -1.345079    0.020419
      6          6           0        1.138361   -0.885517    0.099690
      7          1           0        2.373599    0.875090   -0.084134
      8          1           0        1.997835   -1.567047   -0.027790
      9          1           0       -0.490823   -2.371649    0.053256
     10          1           0       -2.444069   -0.933262   -0.187062
     11          1           0       -1.910717    1.652127    0.174136
     12          1           0        0.416864    2.382188    0.094249
 ---------------------------------------------------------------------

 SCF Done:  E(RB3LYP) =  -232.223298928     A.U. after   13 cycles

 Excitation energies and oscillator strengths:

 Excited State   1:      Singlet-A      5.1076 eV  242.74 nm  f=0.0039  <S**2>=0.000
      20 -> 22        -0.44499
      21 -> 23         0.54919
 This state for optimization and/or second-order correction.
 Total Energy, E(TD-HF/TD-DFT) =  -232.035597965
 Copying the excited state density for this state as the 1-particle RhoCI density.

 The electronic state is 1-A.
 Alpha  occ. eigenvalues --  -10.20329 -10.19886 -10.19689 -10.19644 -10.19361
 Alpha  occ. eigenvalues --  -10.19195  -0.83367  -0.74505  -0.72190  -0.59641
 Alpha  occ. eigenvalues --   -0.59018  -0.51232  -0.46482  -0.43036  -0.42541
 Alpha  occ. eigenvalues --   -0.39702  -0.35334  -0.34411  -0.33022  -0.25161
 Alpha  occ. eigenvalues --   -0.23268
 Alpha virt. eigenvalues --   -0.01091  -0.00529   0.08978   0.13104   0.13697
 Alpha virt. eigenvalues --    0.14873   0.16777   0.17928   0.18942   0.26834
 Alpha virt. eigenvalues --    0.28884   0.29489   0.31134   0.45980   0.49090

 Mulliken charges:
               1
     1  C   -0.069887
     2  C   -0.098589
     3  C   -0.087259
     4  C   -0.083158
     5  C   -0.097359
     6  C   -0.095215
     7  H    0.095224
     8  H    0.088097
     9  H    0.087127
    10  H    0.091174
    11  H    0.091819
    12  H    0.078025
 Sum of Mulliken charges =  -0.00000

 Dipole moment (field-independent basis, Debye):
    X=              0.0049    Y=             -0.0057    Z=              0.0053  Tot=              0.0092
 Quadrupole moment (field-independent basis, Debye-Ang):
   XX=            -30.6466   YY=            -32.2161   ZZ=            -38.8823
   XY=              0.3112   XZ=             -0.1529   YZ=              0.4318

 Normal termination of Gaussian 16 at Fri Nov 10 22:18:40 2023.
