 Gaussian 16, Revision B.01,
 Gaussian 16:  EM64L-G16RevB.01 20-Dec-2017

 ---------------------------------
 # TD=(NStates=1) B3LYP/6-31G(d,p)
 ---------------------------------

 -------
 EMISPCT
 -------
 Symbolic Z-matrix:
 Charge =  0 Multiplicity = 1

                         Standard orientation:
 ---------------------------------------------------------------------
 Center     Atomic      Atomic             Coordinates (Angstroms)
 Number     Number       Type             X           Y           Z
 ---------------------------------------------------------------------
      1          6           0        1.376884   -0.411127   -0.107423
      2          6           0        0.967496    1.035575    0.160835
      3          6           0       -0.377098    1.347331   -0.013670
      4          6           0       -1.410283    0.388037   -0.061228
      5          6           0       -1.020814   -1.060924   -0.024426
      6          6           0        0.403190   -1.334252    0.008918
      7          1           0        2.457681   -0.691517   -0.190260
      8          1           0        0.752708   -2.342595    0.406513
      9          1           0       -1.738846   -1.695347    0.094817
     10          1           0       -2.500608    0.618617   -0.000541
     11          1           0       -0.409858    2.388478    0.127278
     12          1           0        1.802666    1.934525   -0.215843
 ---------------------------------------------------------------------

 SCF Done:  E(RB3LYP) =  -232.168190321     A.U. after   14 cycles

 Excitation energies and oscillator strengths:

 Excited State   1:      Singlet-A      4.7625 eV  260.34 nm  f=0.0112  <S**2>=0.000
      20 -> 22         0.51474
      20 -> 23         0.11185
      21 -> 22        -0.30657
      21 -> 23         0.35372
 This state for optimization and/or second-order correction.
 Total Energy, E(TD-HF/TD-DFT) =  -231.993172421
 Copying the excited state density for this state as the 1-particle RhoCI density.

 The electronic state is 1-A.
 Alpha  occ. eigenvalues --  -10.21231 -10.20932 -10.20034 -10.19956 -10.19703
 Alpha  occ. eigenvalues --  -10.19181  -0.83398  -0.74629  -0.72609  -0.60675
 Alpha  occ. eigenvalues --   -0.57996  -0.51404  -0.45501  -0.43643  -0.41417
 Alpha  occ. eigenvalues --   -0.40226  -0.35949  -0.34634  -0.30958  -0.24851
 Alpha  occ. eigenvalues --   -0.23575
 Alpha virt. eigenvalues --   -0.03343  -0.00263   0.07885   0.10479   0.13756
 Alpha virt. eigenvalues --    0.14204   0.16514   0.17536   0.18308   0.25518
 Alpha virt. eigenvalues --    0.26817   0.30077   0.32474   0.45100   0.46755

 Mulliken charges:
               1
     1  C   -0.096282
     2  C   -0.114706
     3  C   -0.060267
     4  C   -0.101638
     5  C   -0.068972
     6  C   -0.077984
     7  H    0.093826
     8  H    0.085322
     9  H    0.084631
    10  H    0.093890
    11  H    0.096150
    12  H    0.066030
 Sum of Mulliken charges =  -0.00000

 Dipole moment (field-independent basis, Debye):
    X=             -0.2642    Y=             -0.1707    Z=              0.1245  Tot=              0.3383
 Quadrupole moment (field-independent basis, Debye-Ang):
   XX=            -31.4708   YY=            -32.3787   ZZ=            -38.8045
   XY=              0.1948   XZ=             -0.7009   YZ=             -0.8943

 Normal termination of Gaussian 16 at Fri Nov 10 20:56:50 2023.
