 Gaussian 16, Revision B.01,
 Gaussian 16:  EM64L-G16RevB.01 20-Dec-2017

 ---------------------------------
 # TD=(NStates=1) B3LYP/6-31G(d,p)
 ---------------------------------

 -------
 EMISPCT
 -------
 Symbolic Z-matrix:
 Charge =  0 Multiplicity = 1

                         Standard orientation:
 ---------------------------------------------------------------------
 Center     Atomic      Atomic             Coordinates (Angstroms)
 Number     Number       Type             X           Y           Z
 ---------------------------------------------------------------------
      1          6           0        0.546907   -1.271827   -0.014116
      2          6           0        1.465314   -0.224096    0.049137
      3          6           0        0.838821    1.107259   -0.014073
      4          6           0       -0.512334    1.302462   -0.050062
      5          6           0       -1.456000    0.156325    0.032580
      6          6           0       -0.881864   -1.102778   -0.085801
      7          1           0        0.810958   -2.246957    0.132295
      8          1           0       -1.404770   -1.974346    0.008948
      9          1           0       -2.601444    0.482032    0.296964
     10          1           0       -0.897998    2.220313    0.035212
     11          1           0        1.592900    2.080378   -0.022113
     12          1           0        2.495298   -0.365490    0.042697
 ---------------------------------------------------------------------

 SCF Done:  E(RB3LYP) =  -232.203463086     A.U. after   13 cycles

 Excitation energies and oscillator strengths:

 Excited State   1:      Singlet-A      5.2568 eV  235.85 nm  f=0.0017  <S**2>=0.000
      20 -> 22         0.50038
      20 -> 23         0.13113
      21 -> 22        -0.18533
      21 -> 23         0.44469
 This state for optimization and/or second-order correction.
 Total Energy, E(TD-HF/TD-DFT) =  -232.010278975
 Copying the excited state density for this state as the 1-particle RhoCI density.

 The electronic state is 1-A.
 Alpha  occ. eigenvalues --  -10.21148 -10.20572 -10.19391 -10.18755 -10.18680
 Alpha  occ. eigenvalues --  -10.18404  -0.83641  -0.74087  -0.73356  -0.60424
 Alpha  occ. eigenvalues --   -0.58967  -0.51814  -0.46050  -0.43325  -0.42069
 Alpha  occ. eigenvalues --   -0.40991  -0.35262  -0.34782  -0.32348  -0.24691
 Alpha  occ. eigenvalues --   -0.24165
 Alpha virt. eigenvalues --   -0.01181   0.00175   0.07963   0.11564   0.14255
 Alpha virt. eigenvalues --    0.14626   0.17096   0.18769   0.20275   0.26546
 Alpha virt. eigenvalues --    0.28114   0.31360   0.32560   0.47149   0.49627

 Mulliken charges:
               1
     1  C   -0.084085
     2  C   -0.077326
     3  C   -0.089512
     4  C   -0.070085
     5  C   -0.093875
     6  C   -0.082933
     7  H    0.081838
     8  H    0.083386
     9  H    0.089477
    10  H    0.081778
    11  H    0.067913
    12  H    0.093423
 Sum of Mulliken charges =  -0.00000

 Dipole moment (field-independent basis, Debye):
    X=             -0.0106    Y=             -0.1269    Z=              0.3110  Tot=              0.3360
 Quadrupole moment (field-independent basis, Debye-Ang):
   XX=            -31.4116   YY=            -31.6218   ZZ=            -38.7267
   XY=             -0.4894   XZ=             -0.4947   YZ=             -0.1137

 Normal termination of Gaussian 16 at Fri Nov 10 19:44:24 2023.
