 Gaussian 16, Revision B.01,
 Gaussian 16:  EM64L-G16RevB.01 20-Dec-2017

 ---------------------------------
 # TD=(NStates=1) B3LYP/6-31G(d,p)
 ---------------------------------

 -------
 EMISPCT
 -------
 Symbolic Z-matrix:
 Charge =  0 Multiplicity = 1

                         Standard orientation:
 ---------------------------------------------------------------------
 Center     Atomic      Atomic             Coordinates (Angstroms)
 Number     Number       Type             X           Y           Z
 ---------------------------------------------------------------------
      1          6           0       -1.218884   -0.695009   -0.002741
      2          6           0       -1.229455    0.672184   -0.023977
      3          6           0       -0.022144    1.423071   -0.048823
      4          6           0        1.290920    0.725164   -0.028493
      5          6           0        1.258199   -0.716884    0.018959
      6          6           0       -0.020617   -1.373241   -0.034019
      7          1           0       -2.162256   -1.152009    0.368958
      8          1           0       -0.139195   -2.424461   -0.225058
      9          1           0        2.221891   -1.402258    0.100387
     10          1           0        2.331601    1.307898    0.378652
     11          1           0       -0.199755    2.377041   -0.113403
     12          1           0       -2.400395    1.082066    0.205033
 ---------------------------------------------------------------------

 SCF Done:  E(RB3LYP) =  -232.175919910     A.U. after   13 cycles

 Excitation energies and oscillator strengths:

 Excited State   1:      Singlet-A      5.0721 eV  244.44 nm  f=0.0021  <S**2>=0.000
      20 -> 22         0.49768
      20 -> 23        -0.15044
      21 -> 22        -0.22052
      21 -> 23        -0.42502
 This state for optimization and/or second-order correction.
 Total Energy, E(TD-HF/TD-DFT) =  -231.989522415
 Copying the excited state density for this state as the 1-particle RhoCI density.

 The electronic state is 1-A.
 Alpha  occ. eigenvalues --  -10.22492 -10.21294 -10.20278 -10.19671 -10.19206
 Alpha  occ. eigenvalues --  -10.18479  -0.83992  -0.73625  -0.73430  -0.60808
 Alpha  occ. eigenvalues --   -0.57801  -0.50678  -0.45050  -0.43525  -0.40648
 Alpha  occ. eigenvalues --   -0.40301  -0.36917  -0.33029  -0.32137  -0.24953
 Alpha  occ. eigenvalues --   -0.24187
 Alpha virt. eigenvalues --   -0.02097  -0.00494   0.06660   0.09800   0.10886
 Alpha virt. eigenvalues --    0.14563   0.16182   0.17474   0.19179   0.27039
 Alpha virt. eigenvalues --    0.28013   0.31052   0.31678   0.47101   0.48269

 Mulliken charges:
               1
     1  C   -0.075333
     2  C   -0.082230
     3  C   -0.081511
     4  C   -0.104378
     5  C   -0.092088
     6  C   -0.083083
     7  H    0.091281
     8  H    0.088721
     9  H    0.093688
    10  H    0.087397
    11  H    0.087173
    12  H    0.070362
 Sum of Mulliken charges =   0.00000

 Dipole moment (field-independent basis, Debye):
    X=             -0.1172    Y=             -0.1306    Z=              0.3916  Tot=              0.4291
 Quadrupole moment (field-independent basis, Debye-Ang):
   XX=            -31.7108   YY=            -32.3551   ZZ=            -38.7944
   XY=             -0.1259   XZ=             -0.0413   YZ=              0.3006

 Normal termination of Gaussian 16 at Fri Nov 10 19:38:14 2023.
