 Gaussian 16, Revision B.01,
 Gaussian 16:  EM64L-G16RevB.01 20-Dec-2017

 ---------------------------------
 # TD=(NStates=1) B3LYP/6-31G(d,p)
 ---------------------------------

 -------
 EMISPCT
 -------
 Symbolic Z-matrix:
 Charge =  0 Multiplicity = 1

                         Standard orientation:
 ---------------------------------------------------------------------
 Center     Atomic      Atomic             Coordinates (Angstroms)
 Number     Number       Type             X           Y           Z
 ---------------------------------------------------------------------
      1          6           0        0.939592    1.064042    0.017407
      2          6           0       -0.411959    1.366504    0.000851
      3          6           0       -1.399112    0.304588   -0.009314
      4          6           0       -0.983045   -1.059471   -0.043083
      5          6           0        0.521179   -1.333542    0.006264
      6          6           0        1.381212   -0.349426    0.015018
      7          1           0        1.721032    1.859690   -0.029981
      8          1           0        2.446628   -0.529826   -0.014484
      9          1           0        0.625229   -2.474339   -0.094147
     10          1           0       -1.866716   -1.675284    0.248107
     11          1           0       -2.545206    0.435984   -0.008013
     12          1           0       -0.668174    2.427610   -0.024338
 ---------------------------------------------------------------------

 SCF Done:  E(RB3LYP) =  -232.211922951     A.U. after   13 cycles

 Excitation energies and oscillator strengths:

 Excited State   1:      Singlet-A      5.3218 eV  232.97 nm  f=0.0002  <S**2>=0.000
      20 -> 22         0.51232
      21 -> 23        -0.48585
 This state for optimization and/or second-order correction.
 Total Energy, E(TD-HF/TD-DFT) =  -232.016349432
 Copying the excited state density for this state as the 1-particle RhoCI density.

 The electronic state is 1-A.
 Alpha  occ. eigenvalues --  -10.20252 -10.20229 -10.20093 -10.20046 -10.19678
 Alpha  occ. eigenvalues --  -10.19208  -0.83447  -0.74318  -0.72667  -0.59426
 Alpha  occ. eigenvalues --   -0.58603  -0.50604  -0.45932  -0.44107  -0.40997
 Alpha  occ. eigenvalues --   -0.40069  -0.35713  -0.34377  -0.31481  -0.25535
 Alpha  occ. eigenvalues --   -0.23692
 Alpha virt. eigenvalues --   -0.01637   0.00592   0.07968   0.12512   0.13289
 Alpha virt. eigenvalues --    0.14673   0.15580   0.17502   0.17608   0.25460
 Alpha virt. eigenvalues --    0.28378   0.29137   0.33552   0.45780   0.48079

 Mulliken charges:
               1
     1  C   -0.095756
     2  C   -0.079209
     3  C   -0.095006
     4  C   -0.111230
     5  C   -0.089209
     6  C   -0.077186
     7  H    0.092336
     8  H    0.090235
     9  H    0.094205
    10  H    0.097233
    11  H    0.085900
    12  H    0.087687
 Sum of Mulliken charges =  -0.00000

 Dipole moment (field-independent basis, Debye):
    X=              0.0364    Y=              0.1233    Z=              0.0691  Tot=              0.1460
 Quadrupole moment (field-independent basis, Debye-Ang):
   XX=            -31.2362   YY=            -31.9441   ZZ=            -38.9772
   XY=              0.6465   XZ=             -0.5330   YZ=             -0.2687

 Normal termination of Gaussian 16 at Fri Nov 10 20:49:16 2023.
