 Gaussian 16, Revision B.01,
 Gaussian 16:  EM64L-G16RevB.01 20-Dec-2017

 ---------------------------------
 # TD=(NStates=1) B3LYP/6-31G(d,p)
 ---------------------------------

 -------
 EMISPCT
 -------
 Symbolic Z-matrix:
 Charge =  0 Multiplicity = 1

                         Standard orientation:
 ---------------------------------------------------------------------
 Center     Atomic      Atomic             Coordinates (Angstroms)
 Number     Number       Type             X           Y           Z
 ---------------------------------------------------------------------
      1          6           0       -0.075990   -1.401856    0.086411
      2          6           0       -1.288126   -0.669732   -0.032984
      3          6           0       -1.267434    0.779922    0.002387
      4          6           0        0.147291    1.411003   -0.156399
      5          6           0        1.292129    0.644927    0.109185
      6          6           0        1.183651   -0.771065   -0.072349
      7          1           0       -0.215378   -2.490678    0.004390
      8          1           0        2.229374   -1.177486   -0.195759
      9          1           0        2.334617    0.878736    0.198125
     10          1           0        0.012764    2.531040    0.181408
     11          1           0       -2.157523    1.393512    0.204919
     12          1           0       -2.152981   -1.094319   -0.010588
 ---------------------------------------------------------------------

 SCF Done:  E(RB3LYP) =  -232.178760278     A.U. after   14 cycles

 Excitation energies and oscillator strengths:

 Excited State   1:      Singlet-A      4.8082 eV  257.86 nm  f=0.0042  <S**2>=0.000
      20 -> 22        -0.43759
      20 -> 23         0.14164
      21 -> 22         0.27589
      21 -> 23         0.46014
 This state for optimization and/or second-order correction.
 Total Energy, E(TD-HF/TD-DFT) =  -232.002061459
 Copying the excited state density for this state as the 1-particle RhoCI density.

 The electronic state is 1-A.
 Alpha  occ. eigenvalues --  -10.21122 -10.21072 -10.20050 -10.20002 -10.19710
 Alpha  occ. eigenvalues --  -10.18684  -0.83042  -0.74510  -0.71864  -0.60119
 Alpha  occ. eigenvalues --   -0.59226  -0.50634  -0.47065  -0.43913  -0.40751
 Alpha  occ. eigenvalues --   -0.40203  -0.35756  -0.34457  -0.31208  -0.24891
 Alpha  occ. eigenvalues --   -0.23163
 Alpha virt. eigenvalues --   -0.02490  -0.00932   0.08300   0.11449   0.12693
 Alpha virt. eigenvalues --    0.14107   0.16168   0.18867   0.19652   0.24433
 Alpha virt. eigenvalues --    0.28513   0.29235   0.32772   0.43518   0.45212

 Mulliken charges:
               1
     1  C   -0.085373
     2  C   -0.055784
     3  C   -0.113877
     4  C   -0.111325
     5  C   -0.065230
     6  C   -0.095692
     7  H    0.086348
     8  H    0.089729
     9  H    0.094224
    10  H    0.075507
    11  H    0.104280
    12  H    0.077192
 Sum of Mulliken charges =  -0.00000

 Dipole moment (field-independent basis, Debye):
    X=             -0.0880    Y=             -0.2286    Z=              0.2660  Tot=              0.3616
 Quadrupole moment (field-independent basis, Debye-Ang):
   XX=            -30.2240   YY=            -33.1956   ZZ=            -38.8989
   XY=             -0.3696   XZ=             -0.3746   YZ=              0.9719

 Normal termination of Gaussian 16 at Fri Nov 10 20:41:41 2023.
