 Gaussian 16, Revision B.01,
 Gaussian 16:  EM64L-G16RevB.01 20-Dec-2017

 ---------------------------------
 # TD=(NStates=1) B3LYP/6-31G(d,p)
 ---------------------------------

 -------
 EMISPCT
 -------
 Symbolic Z-matrix:
 Charge =  0 Multiplicity = 1

                         Standard orientation:
 ---------------------------------------------------------------------
 Center     Atomic      Atomic             Coordinates (Angstroms)
 Number     Number       Type             X           Y           Z
 ---------------------------------------------------------------------
      1          6           0       -1.399635    0.052473   -0.055064
      2          6           0       -0.733547   -1.226034   -0.007418
      3          6           0        0.635319   -1.247097   -0.022067
      4          6           0        1.437029   -0.052447   -0.035075
      5          6           0        0.792124    1.193688   -0.026427
      6          6           0       -0.647568    1.279922    0.055195
      7          1           0       -2.656867    0.017097    0.120129
      8          1           0       -1.230397    2.119346    0.112853
      9          1           0        1.086642    2.223813   -0.175674
     10          1           0        2.623460   -0.174704    0.371129
     11          1           0        1.067208   -2.271481    0.028172
     12          1           0       -1.392378   -1.917103    0.088527
 ---------------------------------------------------------------------

 SCF Done:  E(RB3LYP) =  -232.175444128     A.U. after   13 cycles

 Excitation energies and oscillator strengths:

 Excited State   1:      Singlet-A      5.1138 eV  242.45 nm  f=0.0005  <S**2>=0.000
      20 -> 22         0.51353
      21 -> 23         0.46914
 This state for optimization and/or second-order correction.
 Total Energy, E(TD-HF/TD-DFT) =  -231.987514566
 Copying the excited state density for this state as the 1-particle RhoCI density.

 The electronic state is 1-A.
 Alpha  occ. eigenvalues --  -10.21644 -10.20830 -10.20141 -10.19901 -10.19236
 Alpha  occ. eigenvalues --  -10.18017  -0.83862  -0.74746  -0.72709  -0.60517
 Alpha  occ. eigenvalues --   -0.59197  -0.51064  -0.46111  -0.43899  -0.42241
 Alpha  occ. eigenvalues --   -0.39239  -0.35782  -0.33640  -0.32162  -0.24832
 Alpha  occ. eigenvalues --   -0.24072
 Alpha virt. eigenvalues --   -0.01643  -0.00472   0.07351   0.09503   0.13787
 Alpha virt. eigenvalues --    0.14466   0.15601   0.18043   0.20087   0.27040
 Alpha virt. eigenvalues --    0.28234   0.30343   0.31495   0.47106   0.49259

 Mulliken charges:
               1
     1  C   -0.104848
     2  C   -0.025926
     3  C   -0.094208
     4  C   -0.104700
     5  C   -0.085015
     6  C   -0.086519
     7  H    0.059669
     8  H    0.091891
     9  H    0.100263
    10  H    0.085005
    11  H    0.088805
    12  H    0.075584
 Sum of Mulliken charges =  -0.00000

 Dipole moment (field-independent basis, Debye):
    X=             -0.2260    Y=              0.0083    Z=              0.3087  Tot=              0.3827
 Quadrupole moment (field-independent basis, Debye-Ang):
   XX=            -32.6353   YY=            -31.1661   ZZ=            -38.7977
   XY=             -0.0771   XZ=              0.1790   YZ=             -0.4112

 Normal termination of Gaussian 16 at Fri Nov 10 22:32:19 2023.
