 Gaussian 16, Revision B.01,
 Gaussian 16:  EM64L-G16RevB.01 20-Dec-2017

 ---------------------------------
 # TD=(NStates=1) B3LYP/6-31G(d,p)
 ---------------------------------

 -------
 EMISPCT
 -------
 Symbolic Z-matrix:
 Charge =  0 Multiplicity = 1

                         Standard orientation:
 ---------------------------------------------------------------------
 Center     Atomic      Atomic             Coordinates (Angstroms)
 Number     Number       Type             X           Y           Z
 ---------------------------------------------------------------------
      1          6           0       -1.251425    0.724519   -0.032653
      2          6           0       -1.214660   -0.745046    0.057184
      3          6           0       -0.028785   -1.325027   -0.088186
      4          6           0        1.228935   -0.697108   -0.026063
      5          6           0        1.244819    0.692951   -0.035917
      6          6           0        0.022682    1.356420    0.019316
      7          1           0       -2.208365    1.320101   -0.164804
      8          1           0       -0.027361    2.546616    0.035201
      9          1           0        2.286877    1.178818    0.322628
     10          1           0        2.216644   -1.370030    0.076769
     11          1           0        0.033078   -2.431149    0.082632
     12          1           0       -2.310266   -1.284616    0.285484
 ---------------------------------------------------------------------

 SCF Done:  E(RB3LYP) =  -232.197505665     A.U. after   14 cycles

 Excitation energies and oscillator strengths:

 Excited State   1:      Singlet-A      5.3679 eV  230.97 nm  f=0.0032  <S**2>=0.000
      20 -> 22         0.48972
      20 -> 23        -0.12180
      21 -> 22         0.21638
      21 -> 23         0.44500
 This state for optimization and/or second-order correction.
 Total Energy, E(TD-HF/TD-DFT) =  -232.000239346
 Copying the excited state density for this state as the 1-particle RhoCI density.

 The electronic state is 1-A.
 Alpha  occ. eigenvalues --  -10.20835 -10.20579 -10.20487 -10.20392 -10.20196
 Alpha  occ. eigenvalues --  -10.18819  -0.84922  -0.74231  -0.73179  -0.59416
 Alpha  occ. eigenvalues --   -0.58129  -0.50089  -0.44519  -0.43735  -0.40427
 Alpha  occ. eigenvalues --   -0.39838  -0.36698  -0.34631  -0.31064  -0.25572
 Alpha  occ. eigenvalues --   -0.24240
 Alpha virt. eigenvalues --   -0.01520   0.00526   0.05712   0.09938   0.12054
 Alpha virt. eigenvalues --    0.14096   0.15651   0.16031   0.17945   0.27326
 Alpha virt. eigenvalues --    0.29142   0.30469   0.34431   0.46473   0.49864

 Mulliken charges:
               1
     1  C   -0.098109
     2  C   -0.079099
     3  C   -0.077656
     4  C   -0.085276
     5  C   -0.084954
     6  C   -0.087865
     7  H    0.098171
     8  H    0.076520
     9  H    0.083862
    10  H    0.091475
    11  H    0.078019
    12  H    0.084911
 Sum of Mulliken charges =  -0.00000

 Dipole moment (field-independent basis, Debye):
    X=             -0.0956    Y=             -0.0774    Z=              0.3443  Tot=              0.3656
 Quadrupole moment (field-independent basis, Debye-Ang):
   XX=            -31.3214   YY=            -32.8226   ZZ=            -38.9321
   XY=             -0.7671   XZ=              0.5483   YZ=             -0.3632

 Normal termination of Gaussian 16 at Fri Nov 10 22:23:08 2023.
