 Gaussian 16, Revision B.01,
 Gaussian 16:  EM64L-G16RevB.01 20-Dec-2017

 ---------------------------------
 # TD=(NStates=1) B3LYP/6-31G(d,p)
 ---------------------------------

 -------
 EMISPCT
 -------
 Symbolic Z-matrix:
 Charge =  0 Multiplicity = 1

                         Standard orientation:
 ---------------------------------------------------------------------
 Center     Atomic      Atomic             Coordinates (Angstroms)
 Number     Number       Type             X           Y           Z
 ---------------------------------------------------------------------
      1          6           0       -0.983557    1.037683   -0.010627
      2          6           0       -1.409564   -0.323045   -0.051877
      3          6           0       -0.440869   -1.339565    0.081952
      4          6           0        0.977487   -1.066787   -0.086802
      5          6           0        1.454369    0.329380    0.003465
      6          6           0        0.368122    1.346508    0.044784
      7          1           0       -1.733517    1.722487    0.071927
      8          1           0        0.840307    2.348244   -0.082946
      9          1           0        2.517765    0.560678    0.155808
     10          1           0        1.837972   -1.703663   -0.166549
     11          1           0       -0.706964   -2.298165    0.298976
     12          1           0       -2.551495   -0.534630   -0.162584
 ---------------------------------------------------------------------

 SCF Done:  E(RB3LYP) =  -232.208391822     A.U. after   13 cycles

 Excitation energies and oscillator strengths:

 Excited State   1:      Singlet-A      4.9161 eV  252.20 nm  f=0.0011  <S**2>=0.000
      20 -> 22         0.43136
      20 -> 23        -0.23119
      21 -> 22         0.30434
      21 -> 23         0.40884
 This state for optimization and/or second-order correction.
 Total Energy, E(TD-HF/TD-DFT) =  -232.027727755
 Copying the excited state density for this state as the 1-particle RhoCI density.

 The electronic state is 1-A.
 Alpha  occ. eigenvalues --  -10.20322 -10.20292 -10.20121 -10.19762 -10.19430
 Alpha  occ. eigenvalues --  -10.18725  -0.82901  -0.73458  -0.72794  -0.60084
 Alpha  occ. eigenvalues --   -0.58933  -0.51223  -0.46845  -0.44028  -0.40999
 Alpha  occ. eigenvalues --   -0.40634  -0.35810  -0.34385  -0.32178  -0.23958
 Alpha  occ. eigenvalues --   -0.23447
 Alpha virt. eigenvalues --   -0.01375  -0.00641   0.08459   0.13299   0.13791
 Alpha virt. eigenvalues --    0.14769   0.17193   0.18194   0.18321   0.26695
 Alpha virt. eigenvalues --    0.27274   0.29450   0.31967   0.47420   0.48469

 Mulliken charges:
               1
     1  C   -0.069163
     2  C   -0.094949
     3  C   -0.085735
     4  C   -0.090888
     5  C   -0.112494
     6  C   -0.090567
     7  H    0.087690
     8  H    0.084001
     9  H    0.100397
    10  H    0.092070
    11  H    0.089025
    12  H    0.090613
 Sum of Mulliken charges =  -0.00000

 Dipole moment (field-independent basis, Debye):
    X=              0.0672    Y=             -0.0752    Z=              0.0960  Tot=              0.1392
 Quadrupole moment (field-independent basis, Debye-Ang):
   XX=            -30.1548   YY=            -32.5837   ZZ=            -38.8623
   XY=             -0.0166   XZ=              0.0639   YZ=             -0.2904

 Normal termination of Gaussian 16 at Fri Nov 10 22:24:55 2023.
