 Gaussian 16, Revision B.01,
 Gaussian 16:  EM64L-G16RevB.01 20-Dec-2017

 ---------------------------------
 # TD=(NStates=1) B3LYP/6-31G(d,p)
 ---------------------------------

 -------
 EMISPCT
 -------
 Symbolic Z-matrix:
 Charge =  0 Multiplicity = 1

                         Standard orientation:
 ---------------------------------------------------------------------
 Center     Atomic      Atomic             Coordinates (Angstroms)
 Number     Number       Type             X           Y           Z
 ---------------------------------------------------------------------
      1          6           0        1.172191   -0.789277    0.039624
      2          6           0        1.292917    0.607442    0.025380
      3          6           0        0.109265    1.357817    0.007924
      4          6           0       -1.155606    0.797572    0.074197
      5          6           0       -1.300190   -0.600370   -0.175789
      6          6           0       -0.079992   -1.420068    0.033071
      7          1           0        1.993182   -1.367827   -0.170551
      8          1           0       -0.201750   -2.501187    0.429437
      9          1           0       -2.395859   -0.990252   -0.231392
     10          1           0       -2.055370    1.502691    0.366284
     11          1           0        0.291750    2.559129   -0.108987
     12          1           0        2.136542    1.078753   -0.311228
 ---------------------------------------------------------------------

 SCF Done:  E(RB3LYP) =  -232.194305699     A.U. after   13 cycles

 Excitation energies and oscillator strengths:

 Excited State   1:      Singlet-A      4.7614 eV  260.39 nm  f=0.0098  <S**2>=0.000
      20 -> 22         0.20428
      20 -> 23         0.31056
      21 -> 22         0.56933
      21 -> 23        -0.19059
 This state for optimization and/or second-order correction.
 Total Energy, E(TD-HF/TD-DFT) =  -232.019326483
 Copying the excited state density for this state as the 1-particle RhoCI density.

 The electronic state is 1-A.
 Alpha  occ. eigenvalues --  -10.21388 -10.20793 -10.20401 -10.19864 -10.18439
 Alpha  occ. eigenvalues --  -10.18217  -0.84111  -0.74103  -0.72948  -0.59894
 Alpha  occ. eigenvalues --   -0.58493  -0.50608  -0.45560  -0.43260  -0.42132
 Alpha  occ. eigenvalues --   -0.40188  -0.35720  -0.33874  -0.33269  -0.24489
 Alpha  occ. eigenvalues --   -0.23227
 Alpha virt. eigenvalues --   -0.02071  -0.00576   0.07119   0.11942   0.13434
 Alpha virt. eigenvalues --    0.13778   0.15452   0.16998   0.19854   0.27818
 Alpha virt. eigenvalues --    0.29069   0.30404   0.32748   0.46669   0.49120

 Mulliken charges:
               1
     1  C   -0.086021
     2  C   -0.067510
     3  C   -0.084529
     4  C   -0.081041
     5  C   -0.103348
     6  C   -0.107887
     7  H    0.090224
     8  H    0.097290
     9  H    0.093345
    10  H    0.091042
    11  H    0.069188
    12  H    0.089246
 Sum of Mulliken charges =  -0.00000

 Dipole moment (field-independent basis, Debye):
    X=             -0.0913    Y=             -0.0412    Z=             -0.0271  Tot=              0.1038
 Quadrupole moment (field-independent basis, Debye-Ang):
   XX=            -31.6489   YY=            -32.4614   ZZ=            -38.5142
   XY=              0.0917   XZ=             -1.1362   YZ=             -0.5678

 Normal termination of Gaussian 16 at Fri Nov 10 21:11:44 2023.
