 Gaussian 16, Revision B.01,
 Gaussian 16:  EM64L-G16RevB.01 20-Dec-2017

 ---------------------------------
 # TD=(NStates=1) B3LYP/6-31G(d,p)
 ---------------------------------

 -------
 EMISPCT
 -------
 Symbolic Z-matrix:
 Charge =  0 Multiplicity = 1

                         Standard orientation:
 ---------------------------------------------------------------------
 Center     Atomic      Atomic             Coordinates (Angstroms)
 Number     Number       Type             X           Y           Z
 ---------------------------------------------------------------------
      1          6           0        1.351524    0.498138    0.027186
      2          6           0        1.165390   -0.889433    0.019433
      3          6           0       -0.201638   -1.382219   -0.092959
      4          6           0       -1.382426   -0.553262    0.097814
      5          6           0       -1.133751    0.899303   -0.015497
      6          6           0        0.183627    1.417733   -0.026143
      7          1           0        2.346222    1.086516    0.139836
      8          1           0        0.500964    2.425057   -0.097828
      9          1           0       -1.982988    1.509010   -0.090373
     10          1           0       -2.334411   -0.917757    0.067570
     11          1           0       -0.347763   -2.349341   -0.050960
     12          1           0        1.921607   -1.695043   -0.027249
 ---------------------------------------------------------------------

 SCF Done:  E(RB3LYP) =  -232.210956426     A.U. after   13 cycles

 Excitation energies and oscillator strengths:

 Excited State   1:      Singlet-A      5.0377 eV  246.11 nm  f=0.0007  <S**2>=0.000
      20 -> 22         0.47392
      20 -> 23         0.15278
      21 -> 22         0.20169
      21 -> 23        -0.45945
 This state for optimization and/or second-order correction.
 Total Energy, E(TD-HF/TD-DFT) =  -232.025823443
 Copying the excited state density for this state as the 1-particle RhoCI density.

 The electronic state is 1-A.
 Alpha  occ. eigenvalues --  -10.20624 -10.20094 -10.19707 -10.19629 -10.19605
 Alpha  occ. eigenvalues --  -10.18814  -0.82473  -0.73380  -0.72951  -0.60053
 Alpha  occ. eigenvalues --   -0.59681  -0.51177  -0.47651  -0.42944  -0.41891
 Alpha  occ. eigenvalues --   -0.40749  -0.34771  -0.34386  -0.32943  -0.24424
 Alpha  occ. eigenvalues --   -0.23663
 Alpha virt. eigenvalues --   -0.01433  -0.00528   0.09466   0.13040   0.14152
 Alpha virt. eigenvalues --    0.14680   0.17795   0.17808   0.19809   0.25800
 Alpha virt. eigenvalues --    0.27627   0.29912   0.31415   0.46179   0.47323

 Mulliken charges:
               1
     1  C   -0.098010
     2  C   -0.086445
     3  C   -0.084558
     4  C   -0.086540
     5  C   -0.093193
     6  C   -0.076676
     7  H    0.085049
     8  H    0.089779
     9  H    0.086697
    10  H    0.091252
    11  H    0.077962
    12  H    0.094682
 Sum of Mulliken charges =  -0.00000

 Dipole moment (field-independent basis, Debye):
    X=             -0.1066    Y=             -0.0499    Z=             -0.0482  Tot=              0.1272
 Quadrupole moment (field-independent basis, Debye-Ang):
   XX=            -31.2261   YY=            -31.1707   ZZ=            -38.9499
   XY=              0.3686   XZ=              0.1901   YZ=             -0.1053

 Normal termination of Gaussian 16 at Fri Nov 10 21:51:59 2023.
