 Gaussian 16, Revision B.01,
 Gaussian 16:  EM64L-G16RevB.01 20-Dec-2017

 ---------------------------------
 # TD=(NStates=1) B3LYP/6-31G(d,p)
 ---------------------------------

 -------
 EMISPCT
 -------
 Symbolic Z-matrix:
 Charge =  0 Multiplicity = 1

                         Standard orientation:
 ---------------------------------------------------------------------
 Center     Atomic      Atomic             Coordinates (Angstroms)
 Number     Number       Type             X           Y           Z
 ---------------------------------------------------------------------
      1          6           0        0.847957   -1.057426    0.113208
      2          6           0       -0.533253   -1.346313   -0.051375
      3          6           0       -1.486226   -0.215602   -0.096418
      4          6           0       -0.864688    1.073030   -0.013513
      5          6           0        0.540499    1.321705    0.040702
      6          6           0        1.456708    0.229430   -0.110245
      7          1           0        1.609659   -1.943876    0.337630
      8          1           0        2.746826   -0.051522   -0.256356
      9          1           0        0.809078    2.473486    0.180047
     10          1           0       -1.451607    1.963458    0.212775
     11          1           0       -2.520068   -0.111070    0.187376
     12          1           0       -0.959869   -2.359423    0.044372
 ---------------------------------------------------------------------

 SCF Done:  E(RB3LYP) =  -232.170359691     A.U. after   14 cycles

 Excitation energies and oscillator strengths:

 Excited State   1:      Singlet-A      4.8912 eV  253.48 nm  f=0.0067  <S**2>=0.000
      20 -> 22         0.47534
      20 -> 23        -0.22175
      21 -> 22        -0.31728
      21 -> 23        -0.35181
 This state for optimization and/or second-order correction.
 Total Energy, E(TD-HF/TD-DFT) =  -231.990610239
 Copying the excited state density for this state as the 1-particle RhoCI density.

 The electronic state is 1-A.
 Alpha  occ. eigenvalues --  -10.22604 -10.21416 -10.20843 -10.20797 -10.20309
 Alpha  occ. eigenvalues --  -10.19442  -0.83202  -0.73207  -0.72864  -0.59890
 Alpha  occ. eigenvalues --   -0.57744  -0.49814  -0.45372  -0.42940  -0.40365
 Alpha  occ. eigenvalues --   -0.39768  -0.35361  -0.33458  -0.32731  -0.24209
 Alpha  occ. eigenvalues --   -0.23924
 Alpha virt. eigenvalues --   -0.02417  -0.00275   0.03993   0.10192   0.12003
 Alpha virt. eigenvalues --    0.12843   0.14545   0.16231   0.19108   0.26401
 Alpha virt. eigenvalues --    0.27635   0.29481   0.31874   0.45352   0.47877

 Mulliken charges:
               1
     1  C   -0.081332
     2  C   -0.098839
     3  C   -0.093116
     4  C   -0.086258
     5  C   -0.104873
     6  C   -0.079333
     7  H    0.080210
     8  H    0.089228
     9  H    0.086873
    10  H    0.085625
    11  H    0.105750
    12  H    0.096064
 Sum of Mulliken charges =  -0.00000

 Dipole moment (field-independent basis, Debye):
    X=             -0.1048    Y=             -0.0611    Z=              0.4269  Tot=              0.4438
 Quadrupole moment (field-independent basis, Debye-Ang):
   XX=            -31.6494   YY=            -32.2064   ZZ=            -39.2471
   XY=             -0.9512   XZ=             -0.7796   YZ=              0.1576

 Normal termination of Gaussian 16 at Fri Nov 10 21:25:03 2023.
