 Gaussian 16, Revision B.01,
 Gaussian 16:  EM64L-G16RevB.01 20-Dec-2017

 ---------------------------------
 # TD=(NStates=1) B3LYP/6-31G(d,p)
 ---------------------------------

 -------
 EMISPCT
 -------
 Symbolic Z-matrix:
 Charge =  0 Multiplicity = 1

                         Standard orientation:
 ---------------------------------------------------------------------
 Center     Atomic      Atomic             Coordinates (Angstroms)
 Number     Number       Type             X           Y           Z
 ---------------------------------------------------------------------
      1          6           0        1.416323   -0.360848   -0.033051
      2          6           0        0.975217    1.103079   -0.041569
      3          6           0       -0.435803    1.348316    0.019560
      4          6           0       -1.380916    0.298630    0.025442
      5          6           0       -1.010656   -1.076972   -0.030073
      6          6           0        0.432974   -1.355791    0.057379
      7          1           0        2.534888   -0.510187   -0.045576
      8          1           0        0.888004   -2.311016    0.105361
      9          1           0       -1.805799   -1.811176   -0.067897
     10          1           0       -2.476800    0.645128   -0.192436
     11          1           0       -0.853558    2.351454    0.191055
     12          1           0        1.730427    1.897308    0.023366
 ---------------------------------------------------------------------

 SCF Done:  E(RB3LYP) =  -232.222811230     A.U. after   13 cycles

 Excitation energies and oscillator strengths:

 Excited State   1:      Singlet-A      5.0750 eV  244.30 nm  f=0.0009  <S**2>=0.000
      20 -> 22         0.52690
      21 -> 23        -0.47121
 This state for optimization and/or second-order correction.
 Total Energy, E(TD-HF/TD-DFT) =  -232.036308642
 Copying the excited state density for this state as the 1-particle RhoCI density.

 The electronic state is 1-A.
 Alpha  occ. eigenvalues --  -10.20689 -10.20611 -10.20529 -10.20111 -10.19911
 Alpha  occ. eigenvalues --  -10.19616  -0.82593  -0.73566  -0.72325  -0.60334
 Alpha  occ. eigenvalues --   -0.57882  -0.50475  -0.46426  -0.43179  -0.41174
 Alpha  occ. eigenvalues --   -0.40553  -0.35261  -0.34412  -0.32233  -0.24646
 Alpha  occ. eigenvalues --   -0.23717
 Alpha virt. eigenvalues --   -0.01822  -0.00124   0.08535   0.12312   0.13931
 Alpha virt. eigenvalues --    0.14638   0.16033   0.17249   0.17622   0.25600
 Alpha virt. eigenvalues --    0.28018   0.29555   0.30599   0.46604   0.48480

 Mulliken charges:
               1
     1  C   -0.098573
     2  C   -0.099843
     3  C   -0.078851
     4  C   -0.092020
     5  C   -0.089306
     6  C   -0.090171
     7  H    0.096291
     8  H    0.088963
     9  H    0.098805
    10  H    0.082748
    11  H    0.088326
    12  H    0.093630
 Sum of Mulliken charges =   0.00000

 Dipole moment (field-independent basis, Debye):
    X=              0.1054    Y=              0.0104    Z=              0.0164  Tot=              0.1072
 Quadrupole moment (field-independent basis, Debye-Ang):
   XX=            -30.8545   YY=            -31.8712   ZZ=            -39.1603
   XY=              0.0772   XZ=              0.3787   YZ=              0.2331

 Normal termination of Gaussian 16 at Fri Nov 10 20:18:13 2023.
