 Gaussian 16, Revision B.01,
 Gaussian 16:  EM64L-G16RevB.01 20-Dec-2017

 ---------------------------------
 # TD=(NStates=1) B3LYP/6-31G(d,p)
 ---------------------------------

 -------
 EMISPCT
 -------
 Symbolic Z-matrix:
 Charge =  0 Multiplicity = 1

                         Standard orientation:
 ---------------------------------------------------------------------
 Center     Atomic      Atomic             Coordinates (Angstroms)
 Number     Number       Type             X           Y           Z
 ---------------------------------------------------------------------
      1          6           0        0.380748    1.381362   -0.030301
      2          6           0       -1.005518    1.016793    0.029869
      3          6           0       -1.428682   -0.360662   -0.016282
      4          6           0       -0.395332   -1.400168   -0.030898
      5          6           0        1.010010   -1.033520    0.064010
      6          6           0        1.450529    0.335726    0.052849
      7          1           0        0.588127    2.436211   -0.284243
      8          1           0        2.420917    0.803236   -0.294725
      9          1           0        1.815800   -1.775661    0.126375
     10          1           0       -0.684986   -2.359664   -0.199811
     11          1           0       -2.469857   -0.450489   -0.158246
     12          1           0       -1.740528    1.709188    0.395167
 ---------------------------------------------------------------------

 SCF Done:  E(RB3LYP) =  -232.206773217     A.U. after   13 cycles

 Excitation energies and oscillator strengths:

 Excited State   1:      Singlet-A      4.7826 eV  259.24 nm  f=0.0013  <S**2>=0.000
      20 -> 22        -0.30686
      20 -> 23        -0.34562
      21 -> 22         0.41397
      21 -> 23        -0.33865
 This state for optimization and/or second-order correction.
 Total Energy, E(TD-HF/TD-DFT) =  -232.031014929
 Copying the excited state density for this state as the 1-particle RhoCI density.

 The electronic state is 1-A.
 Alpha  occ. eigenvalues --  -10.20876 -10.20808 -10.20089 -10.20071 -10.19858
 Alpha  occ. eigenvalues --  -10.19189  -0.82147  -0.73265  -0.72490  -0.60173
 Alpha  occ. eigenvalues --   -0.58861  -0.50512  -0.47303  -0.42824  -0.41362
 Alpha  occ. eigenvalues --   -0.40775  -0.35799  -0.34484  -0.31441  -0.24167
 Alpha  occ. eigenvalues --   -0.23465
 Alpha virt. eigenvalues --   -0.01814  -0.01504   0.10053   0.10752   0.14087
 Alpha virt. eigenvalues --    0.15460   0.16659   0.17206   0.18623   0.26681
 Alpha virt. eigenvalues --    0.27680   0.28391   0.29881   0.46482   0.48689

 Mulliken charges:
               1
     1  C   -0.104170
     2  C   -0.094392
     3  C   -0.090219
     4  C   -0.080113
     5  C   -0.102403
     6  C   -0.098387
     7  H    0.091586
     8  H    0.103063
     9  H    0.095862
    10  H    0.090370
    11  H    0.096164
    12  H    0.092638
 Sum of Mulliken charges =  -0.00000

 Dipole moment (field-independent basis, Debye):
    X=             -0.1212    Y=             -0.0181    Z=             -0.2893  Tot=              0.3141
 Quadrupole moment (field-independent basis, Debye-Ang):
   XX=            -31.3253   YY=            -31.7423   ZZ=            -38.8131
   XY=              0.0924   XZ=             -0.6720   YZ=              0.0315

 Normal termination of Gaussian 16 at Fri Nov 10 20:04:49 2023.
