 Gaussian 16, Revision B.01,
 Gaussian 16:  EM64L-G16RevB.01 20-Dec-2017

 ---------------------------------
 # TD=(NStates=1) B3LYP/6-31G(d,p)
 ---------------------------------

 -------
 EMISPCT
 -------
 Symbolic Z-matrix:
 Charge =  0 Multiplicity = 1

                         Standard orientation:
 ---------------------------------------------------------------------
 Center     Atomic      Atomic             Coordinates (Angstroms)
 Number     Number       Type             X           Y           Z
 ---------------------------------------------------------------------
      1          6           0       -0.847749   -1.163387   -0.015239
      2          6           0        0.620350   -1.281122   -0.070117
      3          6           0        1.490208   -0.134487    0.023526
      4          6           0        0.818167    1.126994    0.118654
      5          6           0       -0.621793    1.300121   -0.153907
      6          6           0       -1.475189    0.163120    0.077855
      7          1           0       -1.333301   -2.125711    0.119238
      8          1           0       -2.508803    0.105150    0.319760
      9          1           0       -1.009596    2.225402   -0.221902
     10          1           0        1.399926    2.229150   -0.054388
     11          1           0        2.652891   -0.222144    0.205479
     12          1           0        0.894916   -2.279283   -0.252817
 ---------------------------------------------------------------------

 SCF Done:  E(RB3LYP) =  -232.189450825     A.U. after   13 cycles

 Excitation energies and oscillator strengths:

 Excited State   1:      Singlet-A      4.8230 eV  257.07 nm  f=0.0010  <S**2>=0.000
      20 -> 22        -0.37510
      20 -> 23         0.28928
      21 -> 22         0.35045
      21 -> 23         0.39050
 This state for optimization and/or second-order correction.
 Total Energy, E(TD-HF/TD-DFT) =  -232.012208299
 Copying the excited state density for this state as the 1-particle RhoCI density.

 The electronic state is 1-A.
 Alpha  occ. eigenvalues --  -10.21721 -10.21443 -10.20318 -10.20057 -10.19908
 Alpha  occ. eigenvalues --  -10.19793  -0.82349  -0.73394  -0.72271  -0.60250
 Alpha  occ. eigenvalues --   -0.58187  -0.50361  -0.46990  -0.43094  -0.41609
 Alpha  occ. eigenvalues --   -0.39470  -0.35359  -0.33616  -0.32436  -0.24302
 Alpha  occ. eigenvalues --   -0.23566
 Alpha virt. eigenvalues --   -0.01852  -0.01432   0.07639   0.11449   0.13104
 Alpha virt. eigenvalues --    0.13554   0.15662   0.17756   0.18774   0.26179
 Alpha virt. eigenvalues --    0.27769   0.28735   0.30025   0.44278   0.46339

 Mulliken charges:
               1
     1  C   -0.101739
     2  C   -0.084516
     3  C   -0.089161
     4  C   -0.095047
     5  C   -0.083833
     6  C   -0.085233
     7  H    0.092587
     8  H    0.096564
     9  H    0.092950
    10  H    0.069225
    11  H    0.098716
    12  H    0.089485
 Sum of Mulliken charges =  -0.00000

 Dipole moment (field-independent basis, Debye):
    X=             -0.1943    Y=             -0.1873    Z=              0.0835  Tot=              0.2825
 Quadrupole moment (field-independent basis, Debye-Ang):
   XX=            -31.7433   YY=            -31.3350   ZZ=            -39.1096
   XY=             -0.1118   XZ=             -0.4142   YZ=             -0.3378

 Normal termination of Gaussian 16 at Fri Nov 10 20:51:51 2023.
