 Gaussian 16, Revision B.01,
 Gaussian 16:  EM64L-G16RevB.01 20-Dec-2017

 ---------------------------------
 # TD=(NStates=1) B3LYP/6-31G(d,p)
 ---------------------------------

 -------
 EMISPCT
 -------
 Symbolic Z-matrix:
 Charge =  0 Multiplicity = 1

                         Standard orientation:
 ---------------------------------------------------------------------
 Center     Atomic      Atomic             Coordinates (Angstroms)
 Number     Number       Type             X           Y           Z
 ---------------------------------------------------------------------
      1          6           0        1.193427   -0.864172   -0.037904
      2          6           0       -0.116410   -1.383210   -0.053207
      3          6           0       -1.339761   -0.594467    0.086217
      4          6           0       -1.199610    0.824135   -0.089129
      5          6           0        0.134928    1.420515   -0.000634
      6          6           0        1.348004    0.591961    0.064834
      7          1           0        2.029067   -1.467576    0.079449
      8          1           0        2.391691    1.142589    0.013694
      9          1           0        0.136691    2.428003    0.025076
     10          1           0       -2.086178    1.363815   -0.114355
     11          1           0       -2.156322   -0.983442    0.347675
     12          1           0       -0.438415   -2.451958   -0.172600
 ---------------------------------------------------------------------

 SCF Done:  E(RB3LYP) =  -232.190964077     A.U. after   13 cycles

 Excitation energies and oscillator strengths:

 Excited State   1:      Singlet-A      4.8727 eV  254.44 nm  f=0.0017  <S**2>=0.000
      20 -> 22         0.42141
      20 -> 23        -0.22946
      21 -> 22        -0.30796
      21 -> 23        -0.41778
 This state for optimization and/or second-order correction.
 Total Energy, E(TD-HF/TD-DFT) =  -232.011894126
 Copying the excited state density for this state as the 1-particle RhoCI density.

 The electronic state is 1-A.
 Alpha  occ. eigenvalues --  -10.21363 -10.19971 -10.19804 -10.19502 -10.19349
 Alpha  occ. eigenvalues --  -10.18344  -0.82405  -0.73626  -0.72721  -0.60089
 Alpha  occ. eigenvalues --   -0.59672  -0.51907  -0.47624  -0.43330  -0.41750
 Alpha  occ. eigenvalues --   -0.40597  -0.35400  -0.34239  -0.32701  -0.24091
 Alpha  occ. eigenvalues --   -0.23242
 Alpha virt. eigenvalues --   -0.01617  -0.00693   0.09216   0.12778   0.14450
 Alpha virt. eigenvalues --    0.15355   0.16960   0.17572   0.20556   0.26701
 Alpha virt. eigenvalues --    0.27833   0.28451   0.31015   0.47251   0.47973

 Mulliken charges:
               1
     1  C   -0.086471
     2  C   -0.094701
     3  C   -0.057599
     4  C   -0.090096
     5  C   -0.081998
     6  C   -0.106641
     7  H    0.096271
     8  H    0.091524
     9  H    0.085417
    10  H    0.085388
    11  H    0.075273
    12  H    0.083633
 Sum of Mulliken charges =  -0.00000

 Dipole moment (field-independent basis, Debye):
    X=             -0.2320    Y=              0.0208    Z=              0.1363  Tot=              0.2699
 Quadrupole moment (field-independent basis, Debye-Ang):
   XX=            -30.6723   YY=            -31.7831   ZZ=            -38.8238
   XY=              0.2101   XZ=             -0.2569   YZ=             -0.1552

 Normal termination of Gaussian 16 at Fri Nov 10 19:42:17 2023.
