 Gaussian 16, Revision B.01,
 Gaussian 16:  EM64L-G16RevB.01 20-Dec-2017

 ---------------------------------
 # TD=(NStates=1) B3LYP/6-31G(d,p)
 ---------------------------------

 -------
 EMISPCT
 -------
 Symbolic Z-matrix:
 Charge =  0 Multiplicity = 1

                         Standard orientation:
 ---------------------------------------------------------------------
 Center     Atomic      Atomic             Coordinates (Angstroms)
 Number     Number       Type             X           Y           Z
 ---------------------------------------------------------------------
      1          6           0       -0.008636    1.416040    0.010911
      2          6           0       -1.232433    0.712676   -0.118567
      3          6           0       -1.308745   -0.739390    0.105179
      4          6           0        0.087998   -1.396188   -0.040625
      5          6           0        1.218587   -0.678294   -0.017012
      6          6           0        1.220441    0.675151    0.043229
      7          1           0        0.044403    2.460853    0.360860
      8          1           0        2.205412    1.170461   -0.038916
      9          1           0        2.243809   -1.080323   -0.193288
     10          1           0        0.065221   -2.435965    0.101534
     11          1           0       -2.234251   -1.334414    0.131156
     12          1           0       -2.187865    1.279416   -0.260039
 ---------------------------------------------------------------------

 SCF Done:  E(RB3LYP) =  -232.208941445     A.U. after   13 cycles

 Excitation energies and oscillator strengths:

 Excited State   1:      Singlet-A      5.0151 eV  247.22 nm  f=0.0003  <S**2>=0.000
      20 -> 22         0.50517
      21 -> 23         0.49099
 This state for optimization and/or second-order correction.
 Total Energy, E(TD-HF/TD-DFT) =  -232.024640850
 Copying the excited state density for this state as the 1-particle RhoCI density.

 The electronic state is 1-A.
 Alpha  occ. eigenvalues --  -10.21305 -10.20542 -10.19676 -10.19391 -10.18797
 Alpha  occ. eigenvalues --  -10.18196  -0.83803  -0.74232  -0.72375  -0.60455
 Alpha  occ. eigenvalues --   -0.58377  -0.50957  -0.46411  -0.43621  -0.41387
 Alpha  occ. eigenvalues --   -0.40223  -0.36533  -0.34957  -0.31211  -0.25060
 Alpha  occ. eigenvalues --   -0.23202
 Alpha virt. eigenvalues --   -0.02198  -0.00044   0.08962   0.12261   0.13821
 Alpha virt. eigenvalues --    0.15339   0.16624   0.17296   0.19136   0.25401
 Alpha virt. eigenvalues --    0.27831   0.31073   0.32943   0.46538   0.47002

 Mulliken charges:
               1
     1  C   -0.092461
     2  C   -0.098196
     3  C   -0.105494
     4  C   -0.111926
     5  C   -0.043962
     6  C   -0.090383
     7  H    0.097881
     8  H    0.085238
     9  H    0.082560
    10  H    0.087592
    11  H    0.102720
    12  H    0.086430
 Sum of Mulliken charges =  -0.00000

 Dipole moment (field-independent basis, Debye):
    X=             -0.0241    Y=             -0.0311    Z=              0.0793  Tot=              0.0886
 Quadrupole moment (field-independent basis, Debye-Ang):
   XX=            -31.0669   YY=            -32.1471   ZZ=            -38.6979
   XY=              0.5585   XZ=             -0.2234   YZ=              0.2394

 Normal termination of Gaussian 16 at Fri Nov 10 23:09:08 2023.
