 Gaussian 16, Revision B.01,
 Gaussian 16:  EM64L-G16RevB.01 20-Dec-2017

 ---------------------------------
 # TD=(NStates=1) B3LYP/6-31G(d,p)
 ---------------------------------

 -------
 EMISPCT
 -------
 Symbolic Z-matrix:
 Charge =  0 Multiplicity = 1

                         Standard orientation:
 ---------------------------------------------------------------------
 Center     Atomic      Atomic             Coordinates (Angstroms)
 Number     Number       Type             X           Y           Z
 ---------------------------------------------------------------------
      1          6           0       -1.390468   -0.381715   -0.030212
      2          6           0       -0.284227   -1.413771   -0.015862
      3          6           0        1.009597   -0.961251    0.121633
      4          6           0        1.382929    0.395327   -0.043151
      5          6           0        0.350932    1.387448   -0.030189
      6          6           0       -1.049237    0.961941    0.040858
      7          1           0       -2.425538   -0.666503   -0.162270
      8          1           0       -1.878834    1.711971    0.366094
      9          1           0        0.670112    2.382483   -0.179061
     10          1           0        2.396571    0.662884   -0.140788
     11          1           0        1.831000   -1.715150    0.123306
     12          1           0       -0.710467   -2.303559   -0.265741
 ---------------------------------------------------------------------

 SCF Done:  E(RB3LYP) =  -232.218095173     A.U. after   13 cycles

 Excitation energies and oscillator strengths:

 Excited State   1:      Singlet-A      5.0879 eV  243.68 nm  f=0.0004  <S**2>=0.000
      20 -> 22         0.47801
      21 -> 22        -0.13504
      21 -> 23         0.49466
 This state for optimization and/or second-order correction.
 Total Energy, E(TD-HF/TD-DFT) =  -232.031117717
 Copying the excited state density for this state as the 1-particle RhoCI density.

 The electronic state is 1-A.
 Alpha  occ. eigenvalues --  -10.20151 -10.19655 -10.19546 -10.19435 -10.19303
 Alpha  occ. eigenvalues --  -10.19200  -0.83232  -0.73662  -0.73152  -0.60460
 Alpha  occ. eigenvalues --   -0.58896  -0.50839  -0.47367  -0.43809  -0.41149
 Alpha  occ. eigenvalues --   -0.40467  -0.35857  -0.35501  -0.31280  -0.24638
 Alpha  occ. eigenvalues --   -0.23611
 Alpha virt. eigenvalues --   -0.01318  -0.00358   0.09653   0.12118   0.14471
 Alpha virt. eigenvalues --    0.15337   0.16419   0.18469   0.18715   0.26482
 Alpha virt. eigenvalues --    0.28980   0.29564   0.32505   0.46516   0.50004

 Mulliken charges:
               1
     1  C   -0.109153
     2  C   -0.069335
     3  C   -0.096756
     4  C   -0.075570
     5  C   -0.096894
     6  C   -0.086416
     7  H    0.091775
     8  H    0.083899
     9  H    0.090768
    10  H    0.092207
    11  H    0.081238
    12  H    0.094237
 Sum of Mulliken charges =  -0.00000

 Dipole moment (field-independent basis, Debye):
    X=              0.0437    Y=             -0.0371    Z=             -0.2025  Tot=              0.2104
 Quadrupole moment (field-independent basis, Debye-Ang):
   XX=            -31.0015   YY=            -32.0506   ZZ=            -38.6431
   XY=              0.7633   XZ=             -0.2490   YZ=              0.5334

 Normal termination of Gaussian 16 at Fri Nov 10 23:11:49 2023.
