 Gaussian 16, Revision B.01,
 Gaussian 16:  EM64L-G16RevB.01 20-Dec-2017

 ---------------------------------
 # TD=(NStates=1) B3LYP/6-31G(d,p)
 ---------------------------------

 -------
 EMISPCT
 -------
 Symbolic Z-matrix:
 Charge =  0 Multiplicity = 1

                         Standard orientation:
 ---------------------------------------------------------------------
 Center     Atomic      Atomic             Coordinates (Angstroms)
 Number     Number       Type             X           Y           Z
 ---------------------------------------------------------------------
      1          6           0        0.230814    1.349776    0.002368
      2          6           0        1.393480    0.502880    0.077810
      3          6           0        1.086259   -0.876333   -0.004565
      4          6           0       -0.242988   -1.367493   -0.066565
      5          6           0       -1.418078   -0.504285   -0.026605
      6          6           0       -1.042395    0.944642    0.031055
      7          1           0        0.363245    2.433162   -0.076070
      8          1           0       -1.962162    1.581196   -0.167512
      9          1           0       -2.441805   -0.944149    0.324688
     10          1           0       -0.276366   -2.280443   -0.098597
     11          1           0        1.800774   -1.825155    0.195664
     12          1           0        2.473760    0.740269   -0.259160
 ---------------------------------------------------------------------

 SCF Done:  E(RB3LYP) =  -232.168849554     A.U. after   14 cycles

 Excitation energies and oscillator strengths:

 Excited State   1:      Singlet-A      5.0246 eV  246.76 nm  f=0.0076  <S**2>=0.000
      20 -> 22         0.56100
      21 -> 22         0.12717
      21 -> 23        -0.40781
 This state for optimization and/or second-order correction.
 Total Energy, E(TD-HF/TD-DFT) =  -231.984200548
 Copying the excited state density for this state as the 1-particle RhoCI density.

 The electronic state is 1-A.
 Alpha  occ. eigenvalues --  -10.21262 -10.20677 -10.20267 -10.19894 -10.19461
 Alpha  occ. eigenvalues --  -10.17835  -0.83747  -0.74664  -0.72659  -0.61033
 Alpha  occ. eigenvalues --   -0.58021  -0.50765  -0.45987  -0.43732  -0.41719
 Alpha  occ. eigenvalues --   -0.39937  -0.35031  -0.34485  -0.32016  -0.25115
 Alpha  occ. eigenvalues --   -0.23652
 Alpha virt. eigenvalues --   -0.02944   0.00549   0.07221   0.12030   0.12944
 Alpha virt. eigenvalues --    0.13767   0.15734   0.17049   0.20851   0.26132
 Alpha virt. eigenvalues --    0.28518   0.29269   0.32058   0.47157   0.47823

 Mulliken charges:
               1
     1  C   -0.079608
     2  C   -0.111030
     3  C   -0.093580
     4  C   -0.024844
     5  C   -0.114521
     6  C   -0.091123
     7  H    0.087697
     8  H    0.090953
     9  H    0.101339
    10  H    0.054917
    11  H    0.076001
    12  H    0.103798
 Sum of Mulliken charges =  -0.00000

 Dipole moment (field-independent basis, Debye):
    X=             -0.1148    Y=             -0.1975    Z=             -0.0714  Tot=              0.2393
 Quadrupole moment (field-independent basis, Debye-Ang):
   XX=            -31.7539   YY=            -31.9253   ZZ=            -38.7248
   XY=              0.0142   XZ=             -0.7588   YZ=             -0.8859

 Normal termination of Gaussian 16 at Fri Nov 10 21:20:30 2023.
