 Gaussian 16, Revision B.01,
 Gaussian 16:  EM64L-G16RevB.01 20-Dec-2017

 ---------------------------------
 # TD=(NStates=1) B3LYP/6-31G(d,p)
 ---------------------------------

 -------
 EMISPCT
 -------
 Symbolic Z-matrix:
 Charge =  0 Multiplicity = 1

                         Standard orientation:
 ---------------------------------------------------------------------
 Center     Atomic      Atomic             Coordinates (Angstroms)
 Number     Number       Type             X           Y           Z
 ---------------------------------------------------------------------
      1          6           0       -1.044841    0.896761   -0.092338
      2          6           0        0.368517    1.442047   -0.001183
      3          6           0        1.299868    0.433344    0.020772
      4          6           0        1.046917   -0.956112   -0.032893
      5          6           0       -0.314054   -1.324445    0.064861
      6          6           0       -1.385590   -0.423915   -0.012814
      7          1           0       -1.924253    1.368051   -0.013400
      8          1           0       -2.429797   -0.660986    0.236067
      9          1           0       -0.260227   -2.467883   -0.001711
     10          1           0        1.938421   -1.575288   -0.261265
     11          1           0        2.301485    0.495032    0.193501
     12          1           0        0.549468    2.435000    0.168376
 ---------------------------------------------------------------------

 SCF Done:  E(RB3LYP) =  -232.188834659     A.U. after   13 cycles

 Excitation energies and oscillator strengths:

 Excited State   1:      Singlet-A      5.2944 eV  234.18 nm  f=0.0002  <S**2>=0.000
      20 -> 22         0.51081
      21 -> 23        -0.48632
 This state for optimization and/or second-order correction.
 Total Energy, E(TD-HF/TD-DFT) =  -231.994267383
 Copying the excited state density for this state as the 1-particle RhoCI density.

 The electronic state is 1-A.
 Alpha  occ. eigenvalues --  -10.19767 -10.19525 -10.19081 -10.18872 -10.18751
 Alpha  occ. eigenvalues --  -10.17870  -0.84325  -0.75460  -0.73070  -0.61799
 Alpha  occ. eigenvalues --   -0.58662  -0.51894  -0.46621  -0.44421  -0.41660
 Alpha  occ. eigenvalues --   -0.41103  -0.35946  -0.34319  -0.31110  -0.25298
 Alpha  occ. eigenvalues --   -0.23725
 Alpha virt. eigenvalues --   -0.01434   0.00514   0.09228   0.12724   0.14529
 Alpha virt. eigenvalues --    0.15274   0.16657   0.18952   0.20467   0.26735
 Alpha virt. eigenvalues --    0.28719   0.31144   0.33590   0.44092   0.48467

 Mulliken charges:
               1
     1  C   -0.088252
     2  C   -0.075845
     3  C   -0.063377
     4  C   -0.101784
     5  C   -0.089472
     6  C   -0.094277
     7  H    0.076663
     8  H    0.098414
     9  H    0.072931
    10  H    0.097994
    11  H    0.073903
    12  H    0.093102
 Sum of Mulliken charges =  -0.00000

 Dipole moment (field-independent basis, Debye):
    X=              0.1003    Y=              0.0957    Z=              0.2241  Tot=              0.2635
 Quadrupole moment (field-independent basis, Debye-Ang):
   XX=            -30.8258   YY=            -32.5749   ZZ=            -38.3830
   XY=             -0.8511   XZ=             -0.5260   YZ=              0.6804

 Normal termination of Gaussian 16 at Fri Nov 10 21:36:22 2023.
