 Gaussian 16, Revision B.01,
 Gaussian 16:  EM64L-G16RevB.01 20-Dec-2017

 ---------------------------------
 # TD=(NStates=1) B3LYP/6-31G(d,p)
 ---------------------------------

 -------
 EMISPCT
 -------
 Symbolic Z-matrix:
 Charge =  0 Multiplicity = 1

                         Standard orientation:
 ---------------------------------------------------------------------
 Center     Atomic      Atomic             Coordinates (Angstroms)
 Number     Number       Type             X           Y           Z
 ---------------------------------------------------------------------
      1          6           0        0.663008    1.230592    0.027394
      2          6           0        1.490979    0.058600   -0.069971
      3          6           0        0.754510   -1.225001   -0.045565
      4          6           0       -0.691593   -1.253573   -0.009983
      5          6           0       -1.460793   -0.070486   -0.005916
      6          6           0       -0.753017    1.229783    0.045638
      7          1           0        1.079668    2.184149    0.145338
      8          1           0       -1.434789    2.221714   -0.087356
      9          1           0       -2.481174   -0.106671   -0.170609
     10          1           0       -1.392553   -2.193037    0.171166
     11          1           0        1.453047   -2.057367    0.334172
     12          1           0        2.757240    0.131721   -0.042289
 ---------------------------------------------------------------------

 SCF Done:  E(RB3LYP) =  -232.188439410     A.U. after   13 cycles

 Excitation energies and oscillator strengths:

 Excited State   1:      Singlet-A      4.9648 eV  249.73 nm  f=0.0017  <S**2>=0.000
      20 -> 22         0.51188
      21 -> 22        -0.14261
      21 -> 23        -0.45913
 This state for optimization and/or second-order correction.
 Total Energy, E(TD-HF/TD-DFT) =  -232.005987375
 Copying the excited state density for this state as the 1-particle RhoCI density.

 The electronic state is 1-A.
 Alpha  occ. eigenvalues --  -10.22370 -10.21339 -10.21195 -10.20961 -10.19607
 Alpha  occ. eigenvalues --  -10.19544  -0.82684  -0.73515  -0.72198  -0.59013
 Alpha  occ. eigenvalues --   -0.58554  -0.50115  -0.44932  -0.43341  -0.40989
 Alpha  occ. eigenvalues --   -0.39686  -0.35629  -0.33759  -0.32141  -0.24698
 Alpha  occ. eigenvalues --   -0.23728
 Alpha virt. eigenvalues --   -0.02258  -0.00485   0.06008   0.11190   0.11626
 Alpha virt. eigenvalues --    0.12614   0.15217   0.17204   0.18206   0.26037
 Alpha virt. eigenvalues --    0.27758   0.28633   0.31148   0.46816   0.48573

 Mulliken charges:
               1
     1  C   -0.078258
     2  C   -0.092700
     3  C   -0.112066
     4  C   -0.086008
     5  C   -0.080693
     6  C   -0.094093
     7  H    0.087671
     8  H    0.087677
     9  H    0.092680
    10  H    0.086910
    11  H    0.096334
    12  H    0.092544
 Sum of Mulliken charges =  -0.00000

 Dipole moment (field-independent basis, Debye):
    X=             -0.0660    Y=              0.1973    Z=              0.2144  Tot=              0.2988
 Quadrupole moment (field-independent basis, Debye-Ang):
   XX=            -30.5671   YY=            -32.7700   ZZ=            -39.2868
   XY=              0.0293   XZ=              0.7640   YZ=             -0.7673

 Normal termination of Gaussian 16 at Fri Nov 10 22:38:09 2023.
