 Gaussian 16, Revision B.01,
 Gaussian 16:  EM64L-G16RevB.01 20-Dec-2017

 ---------------------------------
 # TD=(NStates=1) B3LYP/6-31G(d,p)
 ---------------------------------

 -------
 EMISPCT
 -------
 Symbolic Z-matrix:
 Charge =  0 Multiplicity = 1

                         Standard orientation:
 ---------------------------------------------------------------------
 Center     Atomic      Atomic             Coordinates (Angstroms)
 Number     Number       Type             X           Y           Z
 ---------------------------------------------------------------------
      1          6           0       -0.515501   -1.307122   -0.042337
      2          6           0       -1.505806   -0.180968   -0.050240
      3          6           0       -0.828284    1.161252    0.073204
      4          6           0        0.603766    1.267062   -0.032300
      5          6           0        1.427501    0.181866   -0.017119
      6          6           0        0.877748   -1.164824    0.083049
      7          1           0       -1.039582   -2.185862   -0.054146
      8          1           0        1.375922   -2.019730    0.039660
      9          1           0        2.603190    0.367106   -0.071186
     10          1           0        0.905871    2.292626   -0.121530
     11          1           0       -1.562516    2.145936    0.102964
     12          1           0       -2.639431   -0.343675    0.018703
 ---------------------------------------------------------------------

 SCF Done:  E(RB3LYP) =  -232.194255179     A.U. after   14 cycles

 Excitation energies and oscillator strengths:

 Excited State   1:      Singlet-A      5.0704 eV  244.52 nm  f=0.0012  <S**2>=0.000
      20 -> 22         0.53219
      21 -> 23         0.46477
 This state for optimization and/or second-order correction.
 Total Energy, E(TD-HF/TD-DFT) =  -232.007920000
 Copying the excited state density for this state as the 1-particle RhoCI density.

 The electronic state is 1-A.
 Alpha  occ. eigenvalues --  -10.21653 -10.21390 -10.20823 -10.19385 -10.19272
 Alpha  occ. eigenvalues --  -10.19198  -0.82931  -0.73983  -0.72061  -0.59924
 Alpha  occ. eigenvalues --   -0.58714  -0.50876  -0.45972  -0.43091  -0.41712
 Alpha  occ. eigenvalues --   -0.40722  -0.34829  -0.34125  -0.32291  -0.24665
 Alpha  occ. eigenvalues --   -0.23707
 Alpha virt. eigenvalues --   -0.01899  -0.00083   0.07749   0.12318   0.12963
 Alpha virt. eigenvalues --    0.13491   0.16625   0.17217   0.18516   0.26112
 Alpha virt. eigenvalues --    0.27011   0.29043   0.31092   0.46708   0.48031

 Mulliken charges:
               1
     1  C   -0.090834
     2  C   -0.109138
     3  C   -0.101090
     4  C   -0.063000
     5  C   -0.097564
     6  C   -0.067696
     7  H    0.085159
     8  H    0.086949
     9  H    0.085553
    10  H    0.093581
    11  H    0.076114
    12  H    0.101966
 Sum of Mulliken charges =  -0.00000

 Dipole moment (field-independent basis, Debye):
    X=             -0.0808    Y=             -0.1106    Z=             -0.0538  Tot=              0.1471
 Quadrupole moment (field-independent basis, Debye-Ang):
   XX=            -31.1788   YY=            -31.5230   ZZ=            -39.2076
   XY=              0.2528   XZ=             -0.2901   YZ=             -0.0859

 Normal termination of Gaussian 16 at Fri Nov 10 20:57:37 2023.
