 Gaussian 16, Revision B.01,
 Gaussian 16:  EM64L-G16RevB.01 20-Dec-2017

 ---------------------------------
 # TD=(NStates=1) B3LYP/6-31G(d,p)
 ---------------------------------

 -------
 EMISPCT
 -------
 Symbolic Z-matrix:
 Charge =  0 Multiplicity = 1

                         Standard orientation:
 ---------------------------------------------------------------------
 Center     Atomic      Atomic             Coordinates (Angstroms)
 Number     Number       Type             X           Y           Z
 ---------------------------------------------------------------------
      1          6           0        0.239797    1.402012   -0.079735
      2          6           0       -1.146213    0.927497    0.051692
      3          6           0       -1.404463   -0.549703   -0.020307
      4          6           0       -0.271410   -1.399917   -0.136540
      5          6           0        1.163830   -0.924206    0.021083
      6          6           0        1.374682    0.508869   -0.016969
      7          1           0        0.403949    2.617859   -0.114106
      8          1           0        2.397315    0.882142    0.225739
      9          1           0        2.054575   -1.513639    0.301213
     10          1           0       -0.248931   -2.456698    0.195095
     11          1           0       -2.392668   -0.827716    0.148580
     12          1           0       -1.951579    1.510737    0.328134
 ---------------------------------------------------------------------

 SCF Done:  E(RB3LYP) =  -232.191143370     A.U. after   13 cycles

 Excitation energies and oscillator strengths:

 Excited State   1:      Singlet-A      4.7617 eV  260.38 nm  f=0.0004  <S**2>=0.000
      20 -> 22         0.48662
      21 -> 23         0.50124
 This state for optimization and/or second-order correction.
 Total Energy, E(TD-HF/TD-DFT) =  -232.016155489
 Copying the excited state density for this state as the 1-particle RhoCI density.

 The electronic state is 1-A.
 Alpha  occ. eigenvalues --  -10.21817 -10.20906 -10.20779 -10.20483 -10.20459
 Alpha  occ. eigenvalues --  -10.20391  -0.81716  -0.73279  -0.71796  -0.59537
 Alpha  occ. eigenvalues --   -0.58955  -0.49749  -0.47219  -0.43727  -0.40601
 Alpha  occ. eigenvalues --   -0.39311  -0.35983  -0.33792  -0.31745  -0.24436
 Alpha  occ. eigenvalues --   -0.23230
 Alpha virt. eigenvalues --   -0.02344  -0.01263   0.08136   0.10754   0.12329
 Alpha virt. eigenvalues --    0.14335   0.15566   0.17689   0.18449   0.24925
 Alpha virt. eigenvalues --    0.27209   0.27715   0.30555   0.45827   0.47368

 Mulliken charges:
               1
     1  C   -0.090927
     2  C   -0.090639
     3  C   -0.083676
     4  C   -0.107088
     5  C   -0.106142
     6  C   -0.083292
     7  H    0.077725
     8  H    0.093183
     9  H    0.103644
    10  H    0.091524
    11  H    0.099342
    12  H    0.096346
 Sum of Mulliken charges =  -0.00000

 Dipole moment (field-independent basis, Debye):
    X=             -0.0331    Y=              0.0557    Z=              0.7324  Tot=              0.7352
 Quadrupole moment (field-independent basis, Debye-Ang):
   XX=            -30.4887   YY=            -32.6687   ZZ=            -39.1314
   XY=             -0.6073   XZ=              0.0452   YZ=             -0.5512

 Normal termination of Gaussian 16 at Fri Nov 10 22:33:00 2023.
