 Gaussian 16, Revision B.01,
 Gaussian 16:  EM64L-G16RevB.01 20-Dec-2017

 ---------------------------------
 # TD=(NStates=1) B3LYP/6-31G(d,p)
 ---------------------------------

 -------
 EMISPCT
 -------
 Symbolic Z-matrix:
 Charge =  0 Multiplicity = 1

                         Standard orientation:
 ---------------------------------------------------------------------
 Center     Atomic      Atomic             Coordinates (Angstroms)
 Number     Number       Type             X           Y           Z
 ---------------------------------------------------------------------
      1          6           0        1.065577   -0.968061    0.149461
      2          6           0       -0.327872   -1.339063   -0.094343
      3          6           0       -1.382904   -0.486062   -0.085238
      4          6           0       -1.060821    0.986180    0.086669
      5          6           0        0.304555    1.435737    0.065242
      6          6           0        1.375615    0.361753   -0.111945
      7          1           0        1.773174   -1.843330    0.265862
      8          1           0        2.540160    0.764899   -0.286848
      9          1           0        0.670948    2.393691   -0.070243
     10          1           0       -1.823438    1.716590   -0.060769
     11          1           0       -2.373964   -0.665708    0.137638
     12          1           0       -0.631781   -2.309047   -0.044714
 ---------------------------------------------------------------------

 SCF Done:  E(RB3LYP) =  -232.184004809     A.U. after   14 cycles

 Excitation energies and oscillator strengths:

 Excited State   1:      Singlet-A      4.8799 eV  254.07 nm  f=0.0001  <S**2>=0.000
      20 -> 22        -0.48963
      21 -> 22        -0.10359
      21 -> 23         0.49331
 This state for optimization and/or second-order correction.
 Total Energy, E(TD-HF/TD-DFT) =  -232.004670373
 Copying the excited state density for this state as the 1-particle RhoCI density.

 The electronic state is 1-A.
 Alpha  occ. eigenvalues --  -10.21704 -10.20473 -10.20104 -10.19974 -10.18980
 Alpha  occ. eigenvalues --  -10.18683  -0.82898  -0.73486  -0.72899  -0.59981
 Alpha  occ. eigenvalues --   -0.58790  -0.50979  -0.47207  -0.42162  -0.41922
 Alpha  occ. eigenvalues --   -0.41109  -0.34458  -0.33729  -0.33152  -0.24215
 Alpha  occ. eigenvalues --   -0.23585
 Alpha virt. eigenvalues --   -0.01780  -0.01072   0.08100   0.11688   0.13323
 Alpha virt. eigenvalues --    0.14615   0.16928   0.17537   0.19474   0.24784
 Alpha virt. eigenvalues --    0.27132   0.30734   0.32046   0.42777   0.47500

 Mulliken charges:
               1
     1  C   -0.075299
     2  C   -0.085337
     3  C   -0.081491
     4  C   -0.111788
     5  C   -0.083348
     6  C   -0.100292
     7  H    0.094177
     8  H    0.072837
     9  H    0.096556
    10  H    0.090711
    11  H    0.099846
    12  H    0.083428
 Sum of Mulliken charges =  -0.00000

 Dipole moment (field-independent basis, Debye):
    X=             -0.0800    Y=             -0.0751    Z=             -0.0064  Tot=              0.1099
 Quadrupole moment (field-independent basis, Debye-Ang):
   XX=            -31.6227   YY=            -31.4441   ZZ=            -38.8953
   XY=              0.1411   XZ=             -0.3775   YZ=             -0.8324

 Normal termination of Gaussian 16 at Fri Nov 10 20:31:02 2023.
