 Gaussian 16, Revision B.01,
 Gaussian 16:  EM64L-G16RevB.01 20-Dec-2017

 ---------------------------------
 # TD=(NStates=1) B3LYP/6-31G(d,p)
 ---------------------------------

 -------
 EMISPCT
 -------
 Symbolic Z-matrix:
 Charge =  0 Multiplicity = 1

                         Standard orientation:
 ---------------------------------------------------------------------
 Center     Atomic      Atomic             Coordinates (Angstroms)
 Number     Number       Type             X           Y           Z
 ---------------------------------------------------------------------
      1          6           0       -0.701280   -1.162286    0.031306
      2          6           0        0.734396   -1.244978    0.052703
      3          6           0        1.417987   -0.047098   -0.118086
      4          6           0        0.756470    1.212332    0.007105
      5          6           0       -0.734559    1.204531   -0.013548
      6          6           0       -1.466012    0.028791   -0.029359
      7          1           0       -1.359387   -2.009958    0.050893
      8          1           0       -2.508937   -0.075179   -0.087094
      9          1           0       -1.033520    2.192114    0.097986
     10          1           0        1.329579    2.167273    0.278811
     11          1           0        2.431805   -0.030481    0.036578
     12          1           0        1.098443   -2.191524    0.042099
 ---------------------------------------------------------------------

 SCF Done:  E(RB3LYP) =  -232.216149747     A.U. after   13 cycles

 Excitation energies and oscillator strengths:

 Excited State   1:      Singlet-A      5.1744 eV  239.61 nm  f=0.0027  <S**2>=0.000
      20 -> 22        -0.45523
      21 -> 23         0.53958
 This state for optimization and/or second-order correction.
 Total Energy, E(TD-HF/TD-DFT) =  -232.025994167
 Copying the excited state density for this state as the 1-particle RhoCI density.

 The electronic state is 1-A.
 Alpha  occ. eigenvalues --  -10.20223 -10.19144 -10.18939 -10.18887 -10.18785
 Alpha  occ. eigenvalues --  -10.18590  -0.83625  -0.74742  -0.72702  -0.60805
 Alpha  occ. eigenvalues --   -0.59156  -0.51874  -0.47365  -0.44332  -0.41784
 Alpha  occ. eigenvalues --   -0.40419  -0.35073  -0.34679  -0.32726  -0.25258
 Alpha  occ. eigenvalues --   -0.23279
 Alpha virt. eigenvalues --   -0.01088  -0.00172   0.09688   0.13417   0.14520
 Alpha virt. eigenvalues --    0.15982   0.17580   0.18839   0.19888   0.26635
 Alpha virt. eigenvalues --    0.28257   0.31657   0.32274   0.45740   0.48324

 Mulliken charges:
               1
     1  C   -0.102707
     2  C   -0.061583
     3  C   -0.089824
     4  C   -0.112359
     5  C   -0.085744
     6  C   -0.064467
     7  H    0.076972
     8  H    0.091383
     9  H    0.081906
    10  H    0.095119
    11  H    0.082497
    12  H    0.088807
 Sum of Mulliken charges =  -0.00000

 Dipole moment (field-independent basis, Debye):
    X=             -0.0652    Y=             -0.0556    Z=              0.2560  Tot=              0.2700
 Quadrupole moment (field-independent basis, Debye-Ang):
   XX=            -31.4431   YY=            -31.4161   ZZ=            -38.5628
   XY=              0.4894   XZ=              0.5123   YZ=              0.5644

 Normal termination of Gaussian 16 at Fri Nov 10 20:12:35 2023.
