 Gaussian 16, Revision B.01,
 Gaussian 16:  EM64L-G16RevB.01 20-Dec-2017

 ---------------------------------
 # TD=(NStates=1) B3LYP/6-31G(d,p)
 ---------------------------------

 -------
 EMISPCT
 -------
 Symbolic Z-matrix:
 Charge =  0 Multiplicity = 1

                         Standard orientation:
 ---------------------------------------------------------------------
 Center     Atomic      Atomic             Coordinates (Angstroms)
 Number     Number       Type             X           Y           Z
 ---------------------------------------------------------------------
      1          6           0       -1.374250   -0.407398   -0.074172
      2          6           0       -1.066591    0.963724   -0.070361
      3          6           0        0.400114    1.343159    0.101540
      4          6           0        1.369851    0.447068   -0.098915
      5          6           0        1.033033   -0.990056   -0.065766
      6          6           0       -0.319495   -1.348651    0.146725
      7          1           0       -2.480300   -0.746773    0.015311
      8          1           0       -0.592881   -2.313640    0.046555
      9          1           0        1.870527   -1.658891    0.069548
     10          1           0        2.413646    0.615563   -0.060669
     11          1           0        0.464832    2.374338    0.353817
     12          1           0       -1.931795    1.682331   -0.058866
 ---------------------------------------------------------------------

 SCF Done:  E(RB3LYP) =  -232.210116890     A.U. after   13 cycles

 Excitation energies and oscillator strengths:

 Excited State   1:      Singlet-A      5.1251 eV  241.92 nm  f=0.0002  <S**2>=0.000
      20 -> 22        -0.49214
      21 -> 23         0.50338
 This state for optimization and/or second-order correction.
 Total Energy, E(TD-HF/TD-DFT) =  -232.021774512
 Copying the excited state density for this state as the 1-particle RhoCI density.

 The electronic state is 1-A.
 Alpha  occ. eigenvalues --  -10.20254 -10.19865 -10.19728 -10.19637 -10.19041
 Alpha  occ. eigenvalues --  -10.18349  -0.83439  -0.74371  -0.72591  -0.60319
 Alpha  occ. eigenvalues --   -0.58698  -0.51262  -0.46671  -0.43804  -0.41371
 Alpha  occ. eigenvalues --   -0.40586  -0.35160  -0.34636  -0.32444  -0.25109
 Alpha  occ. eigenvalues --   -0.23394
 Alpha virt. eigenvalues --   -0.01682  -0.00031   0.08859   0.13138   0.13465
 Alpha virt. eigenvalues --    0.14794   0.16756   0.18539   0.19341   0.25632
 Alpha virt. eigenvalues --    0.28480   0.30085   0.32788   0.46716   0.47613

 Mulliken charges:
               1
     1  C   -0.090293
     2  C   -0.106434
     3  C   -0.079951
     4  C   -0.076385
     5  C   -0.105166
     6  C   -0.078822
     7  H    0.085026
     8  H    0.085101
     9  H    0.093879
    10  H    0.089455
    11  H    0.090783
    12  H    0.092806
 Sum of Mulliken charges =  -0.00000

 Dipole moment (field-independent basis, Debye):
    X=              0.0461    Y=              0.0780    Z=              0.2474  Tot=              0.2635
 Quadrupole moment (field-independent basis, Debye-Ang):
   XX=            -30.8728   YY=            -32.1528   ZZ=            -38.7268
   XY=             -0.4909   XZ=              0.1272   YZ=              0.4353

 Normal termination of Gaussian 16 at Fri Nov 10 21:12:47 2023.
