 Gaussian 16, Revision B.01,
 Gaussian 16:  EM64L-G16RevB.01 20-Dec-2017

 ---------------------------------
 # TD=(NStates=1) B3LYP/6-31G(d,p)
 ---------------------------------

 -------
 EMISPCT
 -------
 Symbolic Z-matrix:
 Charge =  0 Multiplicity = 1

                         Standard orientation:
 ---------------------------------------------------------------------
 Center     Atomic      Atomic             Coordinates (Angstroms)
 Number     Number       Type             X           Y           Z
 ---------------------------------------------------------------------
      1          6           0        0.908639    1.085198   -0.086675
      2          6           0        1.443643   -0.273911    0.073297
      3          6           0        0.486206   -1.293044   -0.014447
      4          6           0       -0.917951   -1.049608    0.036008
      5          6           0       -1.436575    0.243386   -0.051191
      6          6           0       -0.469937    1.220488   -0.002877
      7          1           0        1.516963    2.095262   -0.079207
      8          1           0       -0.985974    2.324758    0.196152
      9          1           0       -2.477955    0.508014    0.248186
     10          1           0       -1.671512   -1.985771   -0.134569
     11          1           0        0.919726   -2.167709   -0.127084
     12          1           0        2.614598   -0.369606    0.171833
 ---------------------------------------------------------------------

 SCF Done:  E(RB3LYP) =  -232.190792886     A.U. after   13 cycles

 Excitation energies and oscillator strengths:

 Excited State   1:      Singlet-A      5.1880 eV  238.98 nm  f=0.0106  <S**2>=0.000
      20 -> 22        -0.29509
      20 -> 23        -0.31958
      21 -> 22         0.50032
      21 -> 23        -0.24344
 This state for optimization and/or second-order correction.
 Total Energy, E(TD-HF/TD-DFT) =  -232.000136873
 Copying the excited state density for this state as the 1-particle RhoCI density.

 The electronic state is 1-A.
 Alpha  occ. eigenvalues --  -10.21217 -10.20762 -10.20566 -10.19880 -10.19220
 Alpha  occ. eigenvalues --  -10.18686  -0.84652  -0.74652  -0.72992  -0.59680
 Alpha  occ. eigenvalues --   -0.58747  -0.50848  -0.45044  -0.43238  -0.41765
 Alpha  occ. eigenvalues --   -0.39914  -0.36301  -0.34088  -0.31855  -0.25077
 Alpha  occ. eigenvalues --   -0.24264
 Alpha virt. eigenvalues --   -0.01636   0.00129   0.06463   0.11562   0.11766
 Alpha virt. eigenvalues --    0.14134   0.15120   0.17843   0.18256   0.27908
 Alpha virt. eigenvalues --    0.29043   0.30552   0.32832   0.45899   0.48175

 Mulliken charges:
               1
     1  C   -0.091044
     2  C   -0.104498
     3  C   -0.066749
     4  C   -0.092106
     5  C   -0.080608
     6  C   -0.067305
     7  H    0.089464
     8  H    0.059079
     9  H    0.098902
    10  H    0.073491
    11  H    0.083690
    12  H    0.097684
 Sum of Mulliken charges =  -0.00000

 Dipole moment (field-independent basis, Debye):
    X=              0.1988    Y=             -0.0389    Z=              0.1514  Tot=              0.2529
 Quadrupole moment (field-independent basis, Debye-Ang):
   XX=            -31.2119   YY=            -32.8010   ZZ=            -38.8669
   XY=             -0.2938   XZ=             -0.3306   YZ=              0.6888

 Normal termination of Gaussian 16 at Fri Nov 10 22:43:12 2023.
