 Gaussian 16, Revision B.01,
 Gaussian 16:  EM64L-G16RevB.01 20-Dec-2017

 ---------------------------------
 # TD=(NStates=1) B3LYP/6-31G(d,p)
 ---------------------------------

 -------
 EMISPCT
 -------
 Symbolic Z-matrix:
 Charge =  0 Multiplicity = 1

                         Standard orientation:
 ---------------------------------------------------------------------
 Center     Atomic      Atomic             Coordinates (Angstroms)
 Number     Number       Type             X           Y           Z
 ---------------------------------------------------------------------
      1          6           0        0.905115   -1.127026    0.006395
      2          6           0        1.447904    0.208428   -0.043753
      3          6           0        0.589801    1.342022    0.072953
      4          6           0       -0.959489    1.122581    0.027701
      5          6           0       -1.454618   -0.213257   -0.044819
      6          6           0       -0.566051   -1.301593   -0.038067
      7          1           0        1.661884   -2.024140    0.252718
      8          1           0       -0.964117   -2.362882    0.212510
      9          1           0       -2.414895   -0.371921   -0.149199
     10          1           0       -1.490361    1.913073    0.132377
     11          1           0        0.905061    2.428426   -0.113504
     12          1           0        2.526448    0.230517   -0.217364
 ---------------------------------------------------------------------

 SCF Done:  E(RB3LYP) =  -232.184003846     A.U. after   14 cycles

 Excitation energies and oscillator strengths:

 Excited State   1:      Singlet-A      4.8951 eV  253.28 nm  f=0.0001  <S**2>=0.000
      20 -> 22         0.49752
      21 -> 23         0.50148
 This state for optimization and/or second-order correction.
 Total Energy, E(TD-HF/TD-DFT) =  -232.004113816
 Copying the excited state density for this state as the 1-particle RhoCI density.

 The electronic state is 1-A.
 Alpha  occ. eigenvalues --  -10.21328 -10.21203 -10.20650 -10.20159 -10.19710
 Alpha  occ. eigenvalues --  -10.18899  -0.82237  -0.74237  -0.71580  -0.60166
 Alpha  occ. eigenvalues --   -0.59064  -0.50580  -0.47272  -0.43081  -0.42165
 Alpha  occ. eigenvalues --   -0.39430  -0.35639  -0.33945  -0.32156  -0.25003
 Alpha  occ. eigenvalues --   -0.22968
 Alpha virt. eigenvalues --   -0.02506  -0.00430   0.08562   0.11412   0.13409
 Alpha virt. eigenvalues --    0.14723   0.16427   0.17379   0.18798   0.24487
 Alpha virt. eigenvalues --    0.27591   0.29320   0.30851   0.47199   0.48112

 Mulliken charges:
               1
     1  C   -0.098979
     2  C   -0.079107
     3  C   -0.112864
     4  C   -0.079987
     5  C   -0.052948
     6  C   -0.102229
     7  H    0.089972
     8  H    0.086072
     9  H    0.083301
    10  H    0.080772
    11  H    0.092434
    12  H    0.093564
 Sum of Mulliken charges =  -0.00000

 Dipole moment (field-independent basis, Debye):
    X=             -0.1419    Y=              0.0869    Z=              0.0477  Tot=              0.1731
 Quadrupole moment (field-independent basis, Debye-Ang):
   XX=            -31.1256   YY=            -31.6188   ZZ=            -39.0451
   XY=             -0.5011   XZ=             -0.2154   YZ=             -0.8444

 Normal termination of Gaussian 16 at Fri Nov 10 19:58:40 2023.
