 Gaussian 16, Revision B.01,
 Gaussian 16:  EM64L-G16RevB.01 20-Dec-2017

 ---------------------------------
 # TD=(NStates=1) B3LYP/6-31G(d,p)
 ---------------------------------

 -------
 EMISPCT
 -------
 Symbolic Z-matrix:
 Charge =  0 Multiplicity = 1

                         Standard orientation:
 ---------------------------------------------------------------------
 Center     Atomic      Atomic             Coordinates (Angstroms)
 Number     Number       Type             X           Y           Z
 ---------------------------------------------------------------------
      1          6           0        0.654398   -1.311393    0.032619
      2          6           0       -0.863312   -1.104520    0.016097
      3          6           0       -1.459442    0.145487    0.031737
      4          6           0       -0.588120    1.298126    0.000750
      5          6           0        0.842006    1.127952   -0.017248
      6          6           0        1.405636   -0.155377   -0.082723
      7          1           0        1.072636   -2.325315    0.065638
      8          1           0        2.466559   -0.194730   -0.016660
      9          1           0        1.573821    1.996355    0.298337
     10          1           0       -0.917059    2.216807   -0.029624
     11          1           0       -2.447933    0.149639   -0.195279
     12          1           0       -1.695027   -1.844401   -0.009810
 ---------------------------------------------------------------------

 SCF Done:  E(RB3LYP) =  -232.204956978     A.U. after   13 cycles

 Excitation energies and oscillator strengths:

 Excited State   1:      Singlet-A      5.1437 eV  241.04 nm  f=0.0016  <S**2>=0.000
      20 -> 22         0.47196
      21 -> 22        -0.11456
      21 -> 23         0.50982
 This state for optimization and/or second-order correction.
 Total Energy, E(TD-HF/TD-DFT) =  -232.015929339
 Copying the excited state density for this state as the 1-particle RhoCI density.

 The electronic state is 1-A.
 Alpha  occ. eigenvalues --  -10.20628 -10.20040 -10.19994 -10.18926 -10.18735
 Alpha  occ. eigenvalues --  -10.18489  -0.83366  -0.74931  -0.72416  -0.61243
 Alpha  occ. eigenvalues --   -0.58146  -0.51395  -0.47111  -0.43647  -0.42236
 Alpha  occ. eigenvalues --   -0.39956  -0.35233  -0.34198  -0.33107  -0.25383
 Alpha  occ. eigenvalues --   -0.23208
 Alpha virt. eigenvalues --   -0.01723   0.00104   0.08968   0.12599   0.14235
 Alpha virt. eigenvalues --    0.14957   0.16854   0.18828   0.19757   0.26399
 Alpha virt. eigenvalues --    0.29263   0.29745   0.31384   0.46321   0.48908

 Mulliken charges:
               1
     1  C   -0.091533
     2  C   -0.105513
     3  C   -0.070349
     4  C   -0.079139
     5  C   -0.097030
     6  C   -0.075253
     7  H    0.096660
     8  H    0.086692
     9  H    0.086283
    10  H    0.076735
    11  H    0.089478
    12  H    0.082970
 Sum of Mulliken charges =  -0.00000

 Dipole moment (field-independent basis, Debye):
    X=             -0.0252    Y=             -0.0218    Z=              0.0501  Tot=              0.0602
 Quadrupole moment (field-independent basis, Debye-Ang):
   XX=            -30.8403   YY=            -32.1207   ZZ=            -38.6907
   XY=              0.0294   XZ=              0.8813   YZ=              0.2869

 Normal termination of Gaussian 16 at Fri Nov 10 21:49:23 2023.
