 Gaussian 16, Revision B.01,
 Gaussian 16:  EM64L-G16RevB.01 20-Dec-2017

 ---------------------------------
 # TD=(NStates=1) B3LYP/6-31G(d,p)
 ---------------------------------

 -------
 EMISPCT
 -------
 Symbolic Z-matrix:
 Charge =  0 Multiplicity = 1

                         Standard orientation:
 ---------------------------------------------------------------------
 Center     Atomic      Atomic             Coordinates (Angstroms)
 Number     Number       Type             X           Y           Z
 ---------------------------------------------------------------------
      1          6           0       -1.453997    0.370521    0.137499
      2          6           0       -0.369894    1.314215   -0.071353
      3          6           0        1.013600    0.971016   -0.064049
      4          6           0        1.461907   -0.364401    0.017224
      5          6           0        0.383510   -1.290095   -0.046689
      6          6           0       -0.996800   -1.044816   -0.049385
      7          1           0       -2.580472    0.693740   -0.117279
      8          1           0       -1.924534   -1.654250   -0.054373
      9          1           0        0.607438   -2.400006    0.150198
     10          1           0        2.559704   -0.517986    0.274164
     11          1           0        1.725645    1.752806    0.008436
     12          1           0       -0.617735    2.387060    0.199365
 ---------------------------------------------------------------------

 SCF Done:  E(RB3LYP) =  -232.196126439     A.U. after   14 cycles

 Excitation energies and oscillator strengths:

 Excited State   1:      Singlet-A      4.9474 eV  250.61 nm  f=0.0078  <S**2>=0.000
      20 -> 23        -0.40563
      21 -> 22         0.57831
 This state for optimization and/or second-order correction.
 Total Energy, E(TD-HF/TD-DFT) =  -232.014313531
 Copying the excited state density for this state as the 1-particle RhoCI density.

 The electronic state is 1-A.
 Alpha  occ. eigenvalues --  -10.21087 -10.20813 -10.20572 -10.20494 -10.19967
 Alpha  occ. eigenvalues --  -10.19356  -0.83436  -0.73576  -0.72677  -0.59218
 Alpha  occ. eigenvalues --   -0.58903  -0.50169  -0.45700  -0.44404  -0.40618
 Alpha  occ. eigenvalues --   -0.39097  -0.35797  -0.35060  -0.30577  -0.24497
 Alpha  occ. eigenvalues --   -0.24320
 Alpha virt. eigenvalues --   -0.02468  -0.00525   0.07323   0.11842   0.12518
 Alpha virt. eigenvalues --    0.13866   0.15589   0.16523   0.18693   0.25751
 Alpha virt. eigenvalues --    0.27723   0.28383   0.32604   0.46355   0.47295

 Mulliken charges:
               1
     1  C   -0.115638
     2  C   -0.088064
     3  C   -0.083642
     4  C   -0.073596
     5  C   -0.103724
     6  C   -0.085328
     7  H    0.093109
     8  H    0.103419
     9  H    0.077487
    10  H    0.107947
    11  H    0.087248
    12  H    0.080782
 Sum of Mulliken charges =  -0.00000

 Dipole moment (field-independent basis, Debye):
    X=              0.1562    Y=              0.0616    Z=              0.2597  Tot=              0.3092
 Quadrupole moment (field-independent basis, Debye-Ang):
   XX=            -30.2774   YY=            -33.3759   ZZ=            -39.0563
   XY=              0.5558   XZ=              1.0072   YZ=              0.0058

 Normal termination of Gaussian 16 at Fri Nov 10 21:30:42 2023.
