 Gaussian 16, Revision B.01,
 Gaussian 16:  EM64L-G16RevB.01 20-Dec-2017

 ---------------------------------
 # TD=(NStates=1) B3LYP/6-31G(d,p)
 ---------------------------------

 -------
 EMISPCT
 -------
 Symbolic Z-matrix:
 Charge =  0 Multiplicity = 1

                         Standard orientation:
 ---------------------------------------------------------------------
 Center     Atomic      Atomic             Coordinates (Angstroms)
 Number     Number       Type             X           Y           Z
 ---------------------------------------------------------------------
      1          6           0        1.423166   -0.307752   -0.000667
      2          6           0        0.984227    0.985863    0.031554
      3          6           0       -0.432322    1.296418   -0.085224
      4          6           0       -1.431834    0.292582   -0.011293
      5          6           0       -0.993639   -0.995875    0.007629
      6          6           0        0.430612   -1.289146   -0.042658
      7          1           0        2.515403   -0.555172    0.127720
      8          1           0        0.830962   -2.309651   -0.009237
      9          1           0       -1.831608   -1.713214    0.089101
     10          1           0       -2.541962    0.549320    0.254658
     11          1           0       -0.563638    2.384760    0.038873
     12          1           0        1.709578    1.751410    0.102842
 ---------------------------------------------------------------------

 SCF Done:  E(RB3LYP) =  -232.228167509     A.U. after   13 cycles

 Excitation energies and oscillator strengths:

 Excited State   1:      Singlet-A      5.3625 eV  231.21 nm  f=0.0022  <S**2>=0.000
      20 -> 22        -0.46420
      21 -> 22        -0.12318
      21 -> 23         0.51444
 This state for optimization and/or second-order correction.
 Total Energy, E(TD-HF/TD-DFT) =  -232.031099301
 Copying the excited state density for this state as the 1-particle RhoCI density.

 The electronic state is 1-A.
 Alpha  occ. eigenvalues --  -10.19921 -10.19636 -10.19587 -10.19547 -10.19060
 Alpha  occ. eigenvalues --  -10.18642  -0.84370  -0.75225  -0.72361  -0.60453
 Alpha  occ. eigenvalues --   -0.58371  -0.51226  -0.45600  -0.43789  -0.42288
 Alpha  occ. eigenvalues --   -0.39655  -0.35912  -0.33928  -0.33221  -0.25770
 Alpha  occ. eigenvalues --   -0.23475
 Alpha virt. eigenvalues --   -0.01117   0.00561   0.08113   0.12024   0.14637
 Alpha virt. eigenvalues --    0.14811   0.16630   0.17705   0.19523   0.28306
 Alpha virt. eigenvalues --    0.29539   0.30846   0.31667   0.46613   0.50804

 Mulliken charges:
               1
     1  C   -0.068781
     2  C   -0.088791
     3  C   -0.095846
     4  C   -0.086444
     5  C   -0.082493
     6  C   -0.100903
     7  H    0.091543
     8  H    0.082017
     9  H    0.089440
    10  H    0.093499
    11  H    0.083236
    12  H    0.083524
 Sum of Mulliken charges =  -0.00000

 Dipole moment (field-independent basis, Debye):
    X=              0.1182    Y=              0.0300    Z=              0.3683  Tot=              0.3880
 Quadrupole moment (field-independent basis, Debye-Ang):
   XX=            -30.6925   YY=            -32.6150   ZZ=            -38.7112
   XY=              0.2309   XZ=             -0.2647   YZ=              0.1923

 Normal termination of Gaussian 16 at Fri Nov 10 20:59:19 2023.
