 Gaussian 16, Revision B.01,
 Gaussian 16:  EM64L-G16RevB.01 20-Dec-2017

 ---------------------------------
 # TD=(NStates=1) B3LYP/6-31G(d,p)
 ---------------------------------

 -------
 EMISPCT
 -------
 Symbolic Z-matrix:
 Charge =  0 Multiplicity = 1

                         Standard orientation:
 ---------------------------------------------------------------------
 Center     Atomic      Atomic             Coordinates (Angstroms)
 Number     Number       Type             X           Y           Z
 ---------------------------------------------------------------------
      1          6           0       -0.605696   -1.278816    0.089549
      2          6           0        0.854998   -1.078008    0.008197
      3          6           0        1.497616    0.129759    0.022426
      4          6           0        0.566157    1.222064   -0.041956
      5          6           0       -0.851022    1.159100   -0.009734
      6          6           0       -1.408637   -0.157714   -0.143041
      7          1           0       -1.210768   -2.276412    0.025883
      8          1           0       -2.545351   -0.192467    0.226680
      9          1           0       -1.573313    1.972957    0.184834
     10          1           0        1.020352    2.271471    0.199963
     11          1           0        2.538937    0.214602   -0.058511
     12          1           0        1.449649   -1.968461   -0.131498
 ---------------------------------------------------------------------

 SCF Done:  E(RB3LYP) =  -232.202997734     A.U. after   13 cycles

 Excitation energies and oscillator strengths:

 Excited State   1:      Singlet-A      5.0830 eV  243.92 nm  f=0.0073  <S**2>=0.000
      20 -> 22        -0.27033
      20 -> 23         0.32471
      21 -> 22         0.46376
      21 -> 23         0.32533
 This state for optimization and/or second-order correction.
 Total Energy, E(TD-HF/TD-DFT) =  -232.016199154
 Copying the excited state density for this state as the 1-particle RhoCI density.

 The electronic state is 1-A.
 Alpha  occ. eigenvalues --  -10.20629 -10.20420 -10.20059 -10.19959 -10.19759
 Alpha  occ. eigenvalues --  -10.19571  -0.84017  -0.74710  -0.72396  -0.59552
 Alpha  occ. eigenvalues --   -0.58763  -0.50926  -0.44850  -0.43822  -0.42828
 Alpha  occ. eigenvalues --   -0.39630  -0.35701  -0.33249  -0.32262  -0.25409
 Alpha  occ. eigenvalues --   -0.23792
 Alpha virt. eigenvalues --   -0.01398  -0.01008   0.07521   0.12682   0.12823
 Alpha virt. eigenvalues --    0.13227   0.15817   0.17761   0.18333   0.26530
 Alpha virt. eigenvalues --    0.27513   0.31596   0.32579   0.43742   0.44985

 Mulliken charges:
               1
     1  C   -0.087731
     2  C   -0.098127
     3  C   -0.055378
     4  C   -0.103954
     5  C   -0.078688
     6  C   -0.095880
     7  H    0.094902
     8  H    0.070484
     9  H    0.103341
    10  H    0.066230
    11  H    0.102525
    12  H    0.082276
 Sum of Mulliken charges =  -0.00000

 Dipole moment (field-independent basis, Debye):
    X=              0.1687    Y=             -0.0324    Z=              0.2320  Tot=              0.2886
 Quadrupole moment (field-independent basis, Debye-Ang):
   XX=            -31.1122   YY=            -32.8564   ZZ=            -38.8581
   XY=             -0.4204   XZ=             -0.8750   YZ=              0.7906

 Normal termination of Gaussian 16 at Fri Nov 10 20:10:41 2023.
