 Gaussian 16, Revision B.01,
 Gaussian 16:  EM64L-G16RevB.01 20-Dec-2017

 ---------------------------------
 # TD=(NStates=1) B3LYP/6-31G(d,p)
 ---------------------------------

 -------
 EMISPCT
 -------
 Symbolic Z-matrix:
 Charge =  0 Multiplicity = 1

                         Standard orientation:
 ---------------------------------------------------------------------
 Center     Atomic      Atomic             Coordinates (Angstroms)
 Number     Number       Type             X           Y           Z
 ---------------------------------------------------------------------
      1          6           0        0.295246    1.456551   -0.000925
      2          6           0        1.441301    0.392281   -0.001278
      3          6           0        1.026656   -0.988042    0.014983
      4          6           0       -0.292021   -1.334676   -0.079423
      5          6           0       -1.375522   -0.454601    0.026179
      6          6           0       -1.091781    0.939213   -0.008654
      7          1           0        0.427596    2.464679    0.030032
      8          1           0       -1.788268    1.767394   -0.002575
      9          1           0       -2.467286   -0.978484    0.099398
     10          1           0       -0.531641   -2.339085    0.052847
     11          1           0        1.860294   -1.702613    0.143326
     12          1           0        2.476033    0.723754   -0.028326
 ---------------------------------------------------------------------

 SCF Done:  E(RB3LYP) =  -232.206494312     A.U. after   14 cycles

 Excitation energies and oscillator strengths:

 Excited State   1:      Singlet-A      5.0355 eV  246.22 nm  f=0.0005  <S**2>=0.000
      20 -> 22         0.51967
      21 -> 23        -0.47672
 This state for optimization and/or second-order correction.
 Total Energy, E(TD-HF/TD-DFT) =  -232.021441816
 Copying the excited state density for this state as the 1-particle RhoCI density.

 The electronic state is 1-A.
 Alpha  occ. eigenvalues --  -10.20929 -10.20813 -10.20465 -10.20138 -10.19538
 Alpha  occ. eigenvalues --  -10.18289  -0.82963  -0.73580  -0.72423  -0.60203
 Alpha  occ. eigenvalues --   -0.58902  -0.50746  -0.47048  -0.43104  -0.41347
 Alpha  occ. eigenvalues --   -0.40627  -0.34845  -0.34497  -0.32696  -0.24541
 Alpha  occ. eigenvalues --   -0.23529
 Alpha virt. eigenvalues --   -0.01769  -0.00205   0.08180   0.12993   0.13740
 Alpha virt. eigenvalues --    0.14431   0.16160   0.17934   0.19052   0.25622
 Alpha virt. eigenvalues --    0.27565   0.29015   0.31616   0.47091   0.47470

 Mulliken charges:
               1
     1  C   -0.095435
     2  C   -0.106976
     3  C   -0.077483
     4  C   -0.072727
     5  C   -0.084618
     6  C   -0.098264
     7  H    0.090148
     8  H    0.088388
     9  H    0.087820
    10  H    0.082865
    11  H    0.091092
    12  H    0.095189
 Sum of Mulliken charges =  -0.00000

 Dipole moment (field-independent basis, Debye):
    X=              0.1013    Y=              0.0437    Z=              0.1779  Tot=              0.2094
 Quadrupole moment (field-independent basis, Debye-Ang):
   XX=            -31.4686   YY=            -31.0505   ZZ=            -39.0886
   XY=              0.1884   XZ=             -0.0387   YZ=             -0.3401

 Normal termination of Gaussian 16 at Fri Nov 10 22:21:47 2023.
