 Gaussian 16, Revision B.01,
 Gaussian 16:  EM64L-G16RevB.01 20-Dec-2017

 ---------------------------------
 # TD=(NStates=1) B3LYP/6-31G(d,p)
 ---------------------------------

 -------
 EMISPCT
 -------
 Symbolic Z-matrix:
 Charge =  0 Multiplicity = 1

                         Standard orientation:
 ---------------------------------------------------------------------
 Center     Atomic      Atomic             Coordinates (Angstroms)
 Number     Number       Type             X           Y           Z
 ---------------------------------------------------------------------
      1          6           0       -0.870995    1.107398    0.060258
      2          6           0       -1.444884   -0.185231   -0.078113
      3          6           0       -0.546479   -1.282473    0.017371
      4          6           0        0.861788   -1.125016    0.056529
      5          6           0        1.425377    0.151734    0.005566
      6          6           0        0.566915    1.334273   -0.074835
      7          1           0       -1.525030    1.852477    0.320803
      8          1           0        0.918037    2.396108    0.018566
      9          1           0        2.538413    0.325235   -0.148490
     10          1           0        1.476376   -1.979887    0.068020
     11          1           0       -0.836281   -2.296979   -0.056232
     12          1           0       -2.521842   -0.301060   -0.123322
 ---------------------------------------------------------------------

 SCF Done:  E(RB3LYP) =  -232.230871754     A.U. after   13 cycles

 Excitation energies and oscillator strengths:

 Excited State   1:      Singlet-A      5.1043 eV  242.90 nm  f=0.0005  <S**2>=0.000
      20 -> 22         0.46565
      20 -> 23        -0.15132
      21 -> 22         0.19061
      21 -> 23         0.47285
 This state for optimization and/or second-order correction.
 Total Energy, E(TD-HF/TD-DFT) =  -232.043293807
 Copying the excited state density for this state as the 1-particle RhoCI density.

 The electronic state is 1-A.
 Alpha  occ. eigenvalues --  -10.20422 -10.20194 -10.19495 -10.19077 -10.19069
 Alpha  occ. eigenvalues --  -10.18818  -0.83277  -0.73932  -0.72743  -0.59835
 Alpha  occ. eigenvalues --   -0.59344  -0.51127  -0.46952  -0.42827  -0.41998
 Alpha  occ. eigenvalues --   -0.40929  -0.35571  -0.34085  -0.33279  -0.24427
 Alpha  occ. eigenvalues --   -0.23771
 Alpha virt. eigenvalues --   -0.01034  -0.00463   0.09566   0.13271   0.14598
 Alpha virt. eigenvalues --    0.14789   0.16430   0.18407   0.19285   0.28213
 Alpha virt. eigenvalues --    0.28482   0.30009   0.31165   0.46766   0.49203

 Mulliken charges:
               1
     1  C   -0.089279
     2  C   -0.085014
     3  C   -0.086576
     4  C   -0.071650
     5  C   -0.097775
     6  C   -0.099858
     7  H    0.086410
     8  H    0.093292
     9  H    0.086614
    10  H    0.088622
    11  H    0.082741
    12  H    0.092474
 Sum of Mulliken charges =  -0.00000

 Dipole moment (field-independent basis, Debye):
    X=             -0.1002    Y=             -0.0566    Z=              0.0689  Tot=              0.1341
 Quadrupole moment (field-independent basis, Debye-Ang):
   XX=            -31.3952   YY=            -31.3917   ZZ=            -38.7689
   XY=             -0.2721   XZ=             -0.3287   YZ=              0.5448

 Normal termination of Gaussian 16 at Fri Nov 10 21:25:50 2023.
