 Gaussian 16, Revision B.01,
 Gaussian 16:  EM64L-G16RevB.01 20-Dec-2017

 ---------------------------------
 # TD=(NStates=1) B3LYP/6-31G(d,p)
 ---------------------------------

 -------
 EMISPCT
 -------
 Symbolic Z-matrix:
 Charge =  0 Multiplicity = 1

                         Standard orientation:
 ---------------------------------------------------------------------
 Center     Atomic      Atomic             Coordinates (Angstroms)
 Number     Number       Type             X           Y           Z
 ---------------------------------------------------------------------
      1          6           0       -0.547814   -1.299047   -0.013865
      2          6           0       -1.382944   -0.203036   -0.112852
      3          6           0       -0.920148    1.130611    0.132148
      4          6           0        0.535315    1.327213    0.019783
      5          6           0        1.442103    0.128776   -0.106766
      6          6           0        0.854749   -1.095846    0.064576
      7          1           0       -1.119277   -2.200521    0.114363
      8          1           0        1.606791   -1.979650    0.306706
      9          1           0        2.496437    0.417552   -0.250834
     10          1           0        1.090899    2.211158    0.125407
     11          1           0       -1.567333    2.020419   -0.075938
     12          1           0       -2.395083   -0.400982   -0.117840
 ---------------------------------------------------------------------

 SCF Done:  E(RB3LYP) =  -232.209171363     A.U. after   13 cycles

 Excitation energies and oscillator strengths:

 Excited State   1:      Singlet-A      5.0398 eV  246.01 nm  f=0.0001  <S**2>=0.000
      20 -> 22         0.49082
      21 -> 23         0.50276
 This state for optimization and/or second-order correction.
 Total Energy, E(TD-HF/TD-DFT) =  -232.023962218
 Copying the excited state density for this state as the 1-particle RhoCI density.

 The electronic state is 1-A.
 Alpha  occ. eigenvalues --  -10.20365 -10.20249 -10.20190 -10.19889 -10.19027
 Alpha  occ. eigenvalues --  -10.18545  -0.83590  -0.74146  -0.72656  -0.60112
 Alpha  occ. eigenvalues --   -0.59037  -0.50654  -0.46657  -0.44110  -0.41042
 Alpha  occ. eigenvalues --   -0.40403  -0.35941  -0.34218  -0.32306  -0.24564
 Alpha  occ. eigenvalues --   -0.23700
 Alpha virt. eigenvalues --   -0.01401  -0.00677   0.08556   0.13226   0.13643
 Alpha virt. eigenvalues --    0.14322   0.15816   0.18207   0.19525   0.26455
 Alpha virt. eigenvalues --    0.28601   0.29297   0.32041   0.46634   0.48117

 Mulliken charges:
               1
     1  C   -0.073302
     2  C   -0.083910
     3  C   -0.103406
     4  C   -0.102841
     5  C   -0.081408
     6  C   -0.091430
     7  H    0.093148
     8  H    0.077399
     9  H    0.096519
    10  H    0.091548
    11  H    0.093801
    12  H    0.083881
 Sum of Mulliken charges =  -0.00000

 Dipole moment (field-independent basis, Debye):
    X=              0.0719    Y=              0.0566    Z=              0.0335  Tot=              0.0975
 Quadrupole moment (field-independent basis, Debye-Ang):
   XX=            -30.9615   YY=            -32.2680   ZZ=            -38.7853
   XY=              1.0337   XZ=              0.1833   YZ=             -0.6602

 Normal termination of Gaussian 16 at Fri Nov 10 21:29:46 2023.
