 Gaussian 16, Revision B.01,
 Gaussian 16:  EM64L-G16RevB.01 20-Dec-2017

 ---------------------------------
 # TD=(NStates=1) B3LYP/6-31G(d,p)
 ---------------------------------

 -------
 EMISPCT
 -------
 Symbolic Z-matrix:
 Charge =  0 Multiplicity = 1

                         Standard orientation:
 ---------------------------------------------------------------------
 Center     Atomic      Atomic             Coordinates (Angstroms)
 Number     Number       Type             X           Y           Z
 ---------------------------------------------------------------------
      1          6           0        1.412169   -0.424558   -0.027750
      2          6           0        1.106070    0.874981    0.092280
      3          6           0       -0.293728    1.354475   -0.073637
      4          6           0       -1.389979    0.483570    0.000801
      5          6           0       -1.123734   -0.946812   -0.008463
      6          6           0        0.296271   -1.358422   -0.001590
      7          1           0        2.453330   -0.895874   -0.057603
      8          1           0        0.557492   -2.335650   -0.014196
      9          1           0       -1.897010   -1.667203    0.086424
     10          1           0       -2.591324    0.703679    0.106126
     11          1           0       -0.334428    2.471064   -0.024873
     12          1           0        1.769531    1.824584    0.014274
 ---------------------------------------------------------------------

 SCF Done:  E(RB3LYP) =  -232.202659860     A.U. after   13 cycles

 Excitation energies and oscillator strengths:

 Excited State   1:      Singlet-A      5.1474 eV  240.87 nm  f=0.0011  <S**2>=0.000
      20 -> 22        -0.47513
      21 -> 23         0.51760
 This state for optimization and/or second-order correction.
 Total Energy, E(TD-HF/TD-DFT) =  -232.013497612
 Copying the excited state density for this state as the 1-particle RhoCI density.

 The electronic state is 1-A.
 Alpha  occ. eigenvalues --  -10.21284 -10.20231 -10.20189 -10.20166 -10.20034
 Alpha  occ. eigenvalues --  -10.19455  -0.83201  -0.74051  -0.72358  -0.60067
 Alpha  occ. eigenvalues --   -0.58604  -0.50522  -0.45889  -0.43220  -0.41800
 Alpha  occ. eigenvalues --   -0.39844  -0.35052  -0.34305  -0.32416  -0.25357
 Alpha  occ. eigenvalues --   -0.23367
 Alpha virt. eigenvalues --   -0.01601  -0.00148   0.07492   0.10734   0.13314
 Alpha virt. eigenvalues --    0.13882   0.16566   0.17810   0.18531   0.25979
 Alpha virt. eigenvalues --    0.27367   0.29483   0.33195   0.46353   0.48379

 Mulliken charges:
               1
     1  C   -0.080497
     2  C   -0.083282
     3  C   -0.105413
     4  C   -0.079159
     5  C   -0.089308
     6  C   -0.088627
     7  H    0.093255
     8  H    0.081118
     9  H    0.095205
    10  H    0.084378
    11  H    0.088737
    12  H    0.083595
 Sum of Mulliken charges =  -0.00000

 Dipole moment (field-independent basis, Debye):
    X=              0.0156    Y=             -0.1975    Z=              0.0720  Tot=              0.2108
 Quadrupole moment (field-independent basis, Debye-Ang):
   XX=            -31.4830   YY=            -31.5703   ZZ=            -39.1568
   XY=              0.2820   XZ=             -0.4579   YZ=             -0.0524

 Normal termination of Gaussian 16 at Fri Nov 10 20:32:43 2023.
