 Gaussian 16, Revision B.01,
 Gaussian 16:  EM64L-G16RevB.01 20-Dec-2017

 ---------------------------------
 # TD=(NStates=1) B3LYP/6-31G(d,p)
 ---------------------------------

 -------
 EMISPCT
 -------
 Symbolic Z-matrix:
 Charge =  0 Multiplicity = 1

                         Standard orientation:
 ---------------------------------------------------------------------
 Center     Atomic      Atomic             Coordinates (Angstroms)
 Number     Number       Type             X           Y           Z
 ---------------------------------------------------------------------
      1          6           0       -0.570467   -1.257226   -0.089709
      2          6           0        0.870021   -1.095158    0.068345
      3          6           0        1.495224    0.173691    0.033733
      4          6           0        0.559141    1.222663   -0.136177
      5          6           0       -0.846848    1.088017    0.115650
      6          6           0       -1.467816   -0.148670   -0.027922
      7          1           0       -1.004075   -2.328717    0.073025
      8          1           0       -2.591881   -0.399365   -0.202109
      9          1           0       -1.476395    2.082269    0.467311
     10          1           0        0.802840    2.419516   -0.289241
     11          1           0        2.481555    0.354217    0.047052
     12          1           0        1.552421   -2.027818    0.120439
 ---------------------------------------------------------------------

 SCF Done:  E(RB3LYP) =  -232.189815334     A.U. after   12 cycles

 Excitation energies and oscillator strengths:

 Excited State   1:      Singlet-A      4.9695 eV  249.49 nm  f=0.0046  <S**2>=0.000
      20 -> 22         0.42449
      21 -> 22        -0.11707
      21 -> 23         0.54700
 This state for optimization and/or second-order correction.
 Total Energy, E(TD-HF/TD-DFT) =  -232.007188680
 Copying the excited state density for this state as the 1-particle RhoCI density.

 The electronic state is 1-A.
 Alpha  occ. eigenvalues --  -10.20986 -10.20895 -10.20562 -10.20507 -10.20392
 Alpha  occ. eigenvalues --  -10.19443  -0.83937  -0.74580  -0.71850  -0.59677
 Alpha  occ. eigenvalues --   -0.58020  -0.50374  -0.45993  -0.43035  -0.41681
 Alpha  occ. eigenvalues --   -0.38609  -0.35811  -0.34189  -0.32623  -0.25027
 Alpha  occ. eigenvalues --   -0.23109
 Alpha virt. eigenvalues --   -0.01334  -0.00821   0.05982   0.11698   0.12189
 Alpha virt. eigenvalues --    0.13978   0.14935   0.16182   0.17751   0.26458
 Alpha virt. eigenvalues --    0.29009   0.30372   0.31831   0.46336   0.49655

 Mulliken charges:
               1
     1  C   -0.095105
     2  C   -0.104614
     3  C   -0.056144
     4  C   -0.092090
     5  C   -0.090405
     6  C   -0.080912
     7  H    0.084759
     8  H    0.100434
     9  H    0.083052
    10  H    0.072638
    11  H    0.094477
    12  H    0.083911
 Sum of Mulliken charges =  -0.00000

 Dipole moment (field-independent basis, Debye):
    X=              0.0250    Y=              0.0171    Z=              0.1350  Tot=              0.1383
 Quadrupole moment (field-independent basis, Debye-Ang):
   XX=            -31.2216   YY=            -32.6061   ZZ=            -39.0076
   XY=              0.1175   XZ=             -0.0294   YZ=             -0.0207

 Normal termination of Gaussian 16 at Fri Nov 10 19:53:40 2023.
