 Gaussian 16, Revision B.01,
 Gaussian 16:  EM64L-G16RevB.01 20-Dec-2017

 ---------------------------------
 # TD=(NStates=1) B3LYP/6-31G(d,p)
 ---------------------------------

 -------
 EMISPCT
 -------
 Symbolic Z-matrix:
 Charge =  0 Multiplicity = 1

                         Standard orientation:
 ---------------------------------------------------------------------
 Center     Atomic      Atomic             Coordinates (Angstroms)
 Number     Number       Type             X           Y           Z
 ---------------------------------------------------------------------
      1          6           0       -1.314585    0.621176    0.149819
      2          6           0       -0.067421    1.438858    0.012163
      3          6           0        1.229977    0.781588   -0.013599
      4          6           0        1.304493   -0.640640   -0.025429
      5          6           0        0.083930   -1.418332    0.025875
      6          6           0       -1.199624   -0.771486   -0.089619
      7          1           0       -2.252941    0.987711   -0.169767
      8          1           0       -2.063332   -1.299653   -0.143268
      9          1           0       -0.017431   -2.418932    0.030987
     10          1           0        2.240474   -1.124362    0.249244
     11          1           0        2.187858    1.240035   -0.203625
     12          1           0       -0.315244    2.548219   -0.118836
 ---------------------------------------------------------------------

 SCF Done:  E(RB3LYP) =  -232.204022313     A.U. after   13 cycles

 Excitation energies and oscillator strengths:

 Excited State   1:      Singlet-A      4.8873 eV  253.69 nm  f=0.0041  <S**2>=0.000
      20 -> 22         0.40694
      20 -> 23         0.23358
      21 -> 22        -0.35274
      21 -> 23         0.39377
 This state for optimization and/or second-order correction.
 Total Energy, E(TD-HF/TD-DFT) =  -232.024416340
 Copying the excited state density for this state as the 1-particle RhoCI density.

 The electronic state is 1-A.
 Alpha  occ. eigenvalues --  -10.21456 -10.20210 -10.20041 -10.19336 -10.18945
 Alpha  occ. eigenvalues --  -10.18600  -0.82697  -0.74099  -0.72427  -0.60428
 Alpha  occ. eigenvalues --   -0.59121  -0.51021  -0.47488  -0.43063  -0.41364
 Alpha  occ. eigenvalues --   -0.40983  -0.34497  -0.33977  -0.33446  -0.24633
 Alpha  occ. eigenvalues --   -0.23544
 Alpha virt. eigenvalues --   -0.02180  -0.00827   0.09633   0.12077   0.14545
 Alpha virt. eigenvalues --    0.15083   0.16176   0.17643   0.20810   0.26519
 Alpha virt. eigenvalues --    0.28677   0.29140   0.29789   0.44639   0.47845

 Mulliken charges:
               1
     1  C   -0.101970
     2  C   -0.103335
     3  C   -0.086804
     4  C   -0.098693
     5  C   -0.071737
     6  C   -0.083113
     7  H    0.093295
     8  H    0.084654
     9  H    0.081755
    10  H    0.096243
    11  H    0.095233
    12  H    0.094473
 Sum of Mulliken charges =  -0.00000

 Dipole moment (field-independent basis, Debye):
    X=             -0.0737    Y=             -0.1718    Z=             -0.2474  Tot=              0.3101
 Quadrupole moment (field-independent basis, Debye-Ang):
   XX=            -31.0141   YY=            -32.0170   ZZ=            -38.7773
   XY=              0.0952   XZ=              0.7503   YZ=             -0.7807

 Normal termination of Gaussian 16 at Fri Nov 10 21:28:59 2023.
