 Gaussian 16, Revision B.01,
 Gaussian 16:  EM64L-G16RevB.01 20-Dec-2017

 ---------------------------------
 # TD=(NStates=1) B3LYP/6-31G(d,p)
 ---------------------------------

 -------
 EMISPCT
 -------
 Symbolic Z-matrix:
 Charge =  0 Multiplicity = 1

                         Standard orientation:
 ---------------------------------------------------------------------
 Center     Atomic      Atomic             Coordinates (Angstroms)
 Number     Number       Type             X           Y           Z
 ---------------------------------------------------------------------
      1          6           0        1.229269   -0.703056   -0.012141
      2          6           0       -0.025300   -1.404225    0.038455
      3          6           0       -1.297608   -0.661727   -0.066237
      4          6           0       -1.242500    0.712540    0.079896
      5          6           0        0.014874    1.383307   -0.041279
      6          6           0        1.291414    0.640711    0.009238
      7          1           0        2.056729   -1.471740    0.034748
      8          1           0        2.224497    1.449069   -0.298266
      9          1           0        0.161255    2.512626    0.323660
     10          1           0       -2.131379    1.309122   -0.089945
     11          1           0       -2.209052   -1.098214   -0.199865
     12          1           0        0.077056   -2.506164    0.182077
 ---------------------------------------------------------------------

 SCF Done:  E(RB3LYP) =  -232.190372344     A.U. after   13 cycles

 Excitation energies and oscillator strengths:

 Excited State   1:      Singlet-A      5.1227 eV  242.03 nm  f=0.0011  <S**2>=0.000
      20 -> 22         0.49992
      21 -> 22        -0.11594
      21 -> 23        -0.48409
 This state for optimization and/or second-order correction.
 Total Energy, E(TD-HF/TD-DFT) =  -232.002115890
 Copying the excited state density for this state as the 1-particle RhoCI density.

 The electronic state is 1-A.
 Alpha  occ. eigenvalues --  -10.21136 -10.20656 -10.20624 -10.19849 -10.19525
 Alpha  occ. eigenvalues --  -10.19354  -0.83829  -0.74988  -0.72040  -0.60012
 Alpha  occ. eigenvalues --   -0.58584  -0.50740  -0.45152  -0.43858  -0.41320
 Alpha  occ. eigenvalues --   -0.39520  -0.36862  -0.32983  -0.31860  -0.25938
 Alpha  occ. eigenvalues --   -0.23430
 Alpha virt. eigenvalues --   -0.02617   0.00070   0.06492   0.11491   0.12939
 Alpha virt. eigenvalues --    0.14140   0.15304   0.17600   0.18458   0.25257
 Alpha virt. eigenvalues --    0.28866   0.30144   0.32760   0.45668   0.47042

 Mulliken charges:
               1
     1  C   -0.068815
     2  C   -0.102391
     3  C   -0.073542
     4  C   -0.085941
     5  C   -0.105755
     6  C   -0.088320
     7  H    0.087975
     8  H    0.080404
     9  H    0.081659
    10  H    0.092302
    11  H    0.089984
    12  H    0.092440
 Sum of Mulliken charges =  -0.00000

 Dipole moment (field-independent basis, Debye):
    X=             -0.2029    Y=             -0.2836    Z=             -0.0399  Tot=              0.3510
 Quadrupole moment (field-independent basis, Debye-Ang):
   XX=            -32.1528   YY=            -31.7804   ZZ=            -38.8665
   XY=             -0.0820   XZ=              0.1969   YZ=             -0.0386

 Normal termination of Gaussian 16 at Fri Nov 10 22:25:03 2023.
