 Gaussian 16, Revision B.01,
 Gaussian 16:  EM64L-G16RevB.01 20-Dec-2017

 ---------------------------------
 # TD=(NStates=1) B3LYP/6-31G(d,p)
 ---------------------------------

 -------
 EMISPCT
 -------
 Symbolic Z-matrix:
 Charge =  0 Multiplicity = 1

                         Standard orientation:
 ---------------------------------------------------------------------
 Center     Atomic      Atomic             Coordinates (Angstroms)
 Number     Number       Type             X           Y           Z
 ---------------------------------------------------------------------
      1          6           0       -1.143453   -0.849365   -0.017726
      2          6           0       -1.315369    0.468113   -0.008118
      3          6           0       -0.236957    1.327294    0.071608
      4          6           0        1.090637    0.879055   -0.026183
      5          6           0        1.374793   -0.536455    0.008352
      6          6           0        0.210434   -1.307757   -0.035416
      7          1           0       -1.941640   -1.559664   -0.130035
      8          1           0        0.368938   -2.364978    0.284242
      9          1           0        2.375780   -0.979279    0.056485
     10          1           0        1.922417    1.638736   -0.216176
     11          1           0       -0.342411    2.472047    0.052765
     12          1           0       -2.263593    0.907826   -0.002379
 ---------------------------------------------------------------------

 SCF Done:  E(RB3LYP) =  -232.229815054     A.U. after   13 cycles

 Excitation energies and oscillator strengths:

 Excited State   1:      Singlet-A      5.4109 eV  229.14 nm  f=0.0016  <S**2>=0.000
      20 -> 22         0.44916
      20 -> 23         0.15608
      21 -> 22        -0.21130
      21 -> 23         0.47833
 This state for optimization and/or second-order correction.
 Total Energy, E(TD-HF/TD-DFT) =  -232.030967190
 Copying the excited state density for this state as the 1-particle RhoCI density.

 The electronic state is 1-A.
 Alpha  occ. eigenvalues --  -10.19875 -10.19610 -10.19189 -10.18994 -10.18590
 Alpha  occ. eigenvalues --  -10.17947  -0.85001  -0.74852  -0.73140  -0.60087
 Alpha  occ. eigenvalues --   -0.58995  -0.51622  -0.45702  -0.43950  -0.42864
 Alpha  occ. eigenvalues --   -0.39811  -0.36560  -0.34296  -0.32255  -0.25271
 Alpha  occ. eigenvalues --   -0.24097
 Alpha virt. eigenvalues --   -0.00484   0.00179   0.08561   0.13395   0.13996
 Alpha virt. eigenvalues --    0.15797   0.17210   0.18005   0.18955   0.27571
 Alpha virt. eigenvalues --    0.30107   0.31592   0.33303   0.46226   0.50130

 Mulliken charges:
               1
     1  C   -0.074964
     2  C   -0.063288
     3  C   -0.083831
     4  C   -0.100663
     5  C   -0.080081
     6  C   -0.108234
     7  H    0.092293
     8  H    0.073997
     9  H    0.098363
    10  H    0.083032
    11  H    0.081194
    12  H    0.082182
 Sum of Mulliken charges =  -0.00000

 Dipole moment (field-independent basis, Debye):
    X=             -0.0512    Y=              0.0425    Z=              0.0109  Tot=              0.0675
 Quadrupole moment (field-independent basis, Debye-Ang):
   XX=            -31.1535   YY=            -32.3139   ZZ=            -38.4842
   XY=             -0.0015   XZ=              0.0858   YZ=             -0.5865

 Normal termination of Gaussian 16 at Fri Nov 10 20:43:31 2023.
