 Gaussian 16, Revision B.01,
 Gaussian 16:  EM64L-G16RevB.01 20-Dec-2017

 ---------------------------------
 # TD=(NStates=1) B3LYP/6-31G(d,p)
 ---------------------------------

 -------
 EMISPCT
 -------
 Symbolic Z-matrix:
 Charge =  0 Multiplicity = 1

                         Standard orientation:
 ---------------------------------------------------------------------
 Center     Atomic      Atomic             Coordinates (Angstroms)
 Number     Number       Type             X           Y           Z
 ---------------------------------------------------------------------
      1          6           0       -1.208249   -0.843517   -0.094934
      2          6           0       -1.349771    0.605965    0.002009
      3          6           0       -0.161044    1.396330   -0.012053
      4          6           0        1.168047    0.836361   -0.074023
      5          6           0        1.325303   -0.610373    0.109667
      6          6           0        0.178177   -1.377526    0.004153
      7          1           0       -1.994861   -1.480219    0.130482
      8          1           0        0.355612   -2.394725    0.010038
      9          1           0        2.296077   -0.923825   -0.047192
     10          1           0        2.024278    1.486588   -0.133484
     11          1           0       -0.215590    2.414565    0.271907
     12          1           0       -2.180293    0.854177    0.159337
 ---------------------------------------------------------------------

 SCF Done:  E(RB3LYP) =  -232.173089987     A.U. after   13 cycles

 Excitation energies and oscillator strengths:

 Excited State   1:      Singlet-A      4.9057 eV  252.74 nm  f=0.0056  <S**2>=0.000
      20 -> 22         0.42464
      20 -> 23        -0.18502
      21 -> 22         0.32386
      21 -> 23         0.42446
 This state for optimization and/or second-order correction.
 Total Energy, E(TD-HF/TD-DFT) =  -231.992809215
 Copying the excited state density for this state as the 1-particle RhoCI density.

 The electronic state is 1-A.
 Alpha  occ. eigenvalues --  -10.19783 -10.19657 -10.19286 -10.19059 -10.18810
 Alpha  occ. eigenvalues --  -10.18201  -0.82818  -0.74719  -0.72635  -0.61091
 Alpha  occ. eigenvalues --   -0.60057  -0.51895  -0.48943  -0.43887  -0.41421
 Alpha  occ. eigenvalues --   -0.40572  -0.36152  -0.34361  -0.32573  -0.24782
 Alpha  occ. eigenvalues --   -0.23097
 Alpha virt. eigenvalues --   -0.02123  -0.00383   0.11067   0.12565   0.15849
 Alpha virt. eigenvalues --    0.16310   0.17446   0.19085   0.20743   0.26898
 Alpha virt. eigenvalues --    0.27502   0.29601   0.31289   0.46523   0.49238

 Mulliken charges:
               1
     1  C   -0.107347
     2  C   -0.021411
     3  C   -0.090468
     4  C   -0.104970
     5  C   -0.074052
     6  C   -0.092821
     7  H    0.093395
     8  H    0.082268
     9  H    0.091667
    10  H    0.090279
    11  H    0.086254
    12  H    0.047206
 Sum of Mulliken charges =  -0.00000

 Dipole moment (field-independent basis, Debye):
    X=              0.0301    Y=              0.0062    Z=              0.2780  Tot=              0.2797
 Quadrupole moment (field-independent basis, Debye-Ang):
   XX=            -30.5890   YY=            -32.0061   ZZ=            -38.4801
   XY=              0.2506   XZ=             -0.9782   YZ=              0.3469

 Normal termination of Gaussian 16 at Fri Nov 10 19:42:52 2023.
