 Gaussian 16, Revision B.01,
 Gaussian 16:  EM64L-G16RevB.01 20-Dec-2017

 ---------------------------------
 # TD=(NStates=1) B3LYP/6-31G(d,p)
 ---------------------------------

 -------
 EMISPCT
 -------
 Symbolic Z-matrix:
 Charge =  0 Multiplicity = 1

                         Standard orientation:
 ---------------------------------------------------------------------
 Center     Atomic      Atomic             Coordinates (Angstroms)
 Number     Number       Type             X           Y           Z
 ---------------------------------------------------------------------
      1          6           0        1.333209   -0.639263   -0.034176
      2          6           0        0.120878   -1.390645   -0.020898
      3          6           0       -1.235740   -0.796413    0.041782
      4          6           0       -1.289540    0.648851   -0.009005
      5          6           0       -0.128701    1.386320   -0.091958
      6          6           0        1.194036    0.812029    0.106650
      7          1           0        2.303146   -1.221401   -0.008683
      8          1           0        2.020943    1.534296    0.136368
      9          1           0       -0.120854    2.510281   -0.238413
     10          1           0       -2.265540    1.074446    0.267047
     11          1           0       -1.913827   -1.551004   -0.008014
     12          1           0        0.011283   -2.471887   -0.102687
 ---------------------------------------------------------------------

 SCF Done:  E(RB3LYP) =  -232.212402366     A.U. after   13 cycles

 Excitation energies and oscillator strengths:

 Excited State   1:      Singlet-A      4.9608 eV  249.93 nm  f=0.0019  <S**2>=0.000
      20 -> 22         0.47889
      20 -> 23        -0.16371
      21 -> 22         0.22796
      21 -> 23         0.43753
 This state for optimization and/or second-order correction.
 Total Energy, E(TD-HF/TD-DFT) =  -232.030095206
 Copying the excited state density for this state as the 1-particle RhoCI density.

 The electronic state is 1-A.
 Alpha  occ. eigenvalues --  -10.20846 -10.20667 -10.20022 -10.19869 -10.19562
 Alpha  occ. eigenvalues --  -10.19312  -0.82842  -0.73381  -0.72863  -0.60532
 Alpha  occ. eigenvalues --   -0.58304  -0.50529  -0.46895  -0.43570  -0.41812
 Alpha  occ. eigenvalues --   -0.39480  -0.35616  -0.35066  -0.31676  -0.24455
 Alpha  occ. eigenvalues --   -0.23492
 Alpha virt. eigenvalues --   -0.01861  -0.00400   0.08709   0.12369   0.13986
 Alpha virt. eigenvalues --    0.14492   0.15957   0.17023   0.19793   0.26290
 Alpha virt. eigenvalues --    0.27552   0.29093   0.31685   0.47291   0.47970

 Mulliken charges:
               1
     1  C   -0.092497
     2  C   -0.095848
     3  C   -0.076835
     4  C   -0.093338
     5  C   -0.087597
     6  C   -0.097209
     7  H    0.094610
     8  H    0.094188
     9  H    0.088706
    10  H    0.094472
    11  H    0.089862
    12  H    0.081486
 Sum of Mulliken charges =  -0.00000

 Dipole moment (field-independent basis, Debye):
    X=             -0.0007    Y=             -0.0577    Z=              0.0363  Tot=              0.0681
 Quadrupole moment (field-independent basis, Debye-Ang):
   XX=            -31.8355   YY=            -31.1187   ZZ=            -38.9880
   XY=              0.7247   XZ=             -0.2542   YZ=              0.1585

 Normal termination of Gaussian 16 at Fri Nov 10 22:46:52 2023.
