 Gaussian 16, Revision B.01,
 Gaussian 16:  EM64L-G16RevB.01 20-Dec-2017

 ---------------------------------
 # TD=(NStates=1) B3LYP/6-31G(d,p)
 ---------------------------------

 -------
 EMISPCT
 -------
 Symbolic Z-matrix:
 Charge =  0 Multiplicity = 1

                         Standard orientation:
 ---------------------------------------------------------------------
 Center     Atomic      Atomic             Coordinates (Angstroms)
 Number     Number       Type             X           Y           Z
 ---------------------------------------------------------------------
      1          6           0        1.206811    0.834636   -0.003023
      2          6           0        1.310279   -0.571102   -0.044301
      3          6           0        0.162403   -1.411116    0.081866
      4          6           0       -1.205162   -0.842573   -0.137219
      5          6           0       -1.310617    0.599023   -0.030940
      6          6           0       -0.195467    1.425082    0.053486
      7          1           0        2.251984    1.421292   -0.122723
      8          1           0       -0.247980    2.455084    0.108982
      9          1           0       -2.329849    0.867841    0.142062
     10          1           0       -2.083707   -1.418419    0.142701
     11          1           0        0.284883   -2.342766    0.214904
     12          1           0        2.315191   -1.186738   -0.005138
 ---------------------------------------------------------------------

 SCF Done:  E(RB3LYP) =  -232.188241161     A.U. after   13 cycles

 Excitation energies and oscillator strengths:

 Excited State   1:      Singlet-A      4.9349 eV  251.24 nm  f=0.0046  <S**2>=0.000
      20 -> 22         0.51766
      21 -> 22         0.19882
      21 -> 23        -0.42921
 This state for optimization and/or second-order correction.
 Total Energy, E(TD-HF/TD-DFT) =  -232.006885518
 Copying the excited state density for this state as the 1-particle RhoCI density.

 The electronic state is 1-A.
 Alpha  occ. eigenvalues --  -10.21723 -10.20255 -10.20073 -10.20068 -10.19594
 Alpha  occ. eigenvalues --  -10.18856  -0.82608  -0.74075  -0.72274  -0.61211
 Alpha  occ. eigenvalues --   -0.57903  -0.50842  -0.47337  -0.42938  -0.41130
 Alpha  occ. eigenvalues --   -0.40636  -0.34919  -0.34336  -0.32675  -0.24895
 Alpha  occ. eigenvalues --   -0.23326
 Alpha virt. eigenvalues --   -0.02667   0.00017   0.08206   0.12440   0.12943
 Alpha virt. eigenvalues --    0.13309   0.16728   0.18204   0.20164   0.25750
 Alpha virt. eigenvalues --    0.27940   0.28966   0.30963   0.46547   0.48319

 Mulliken charges:
               1
     1  C   -0.105987
     2  C   -0.079943
     3  C   -0.058677
     4  C   -0.113147
     5  C   -0.079955
     6  C   -0.089283
     7  H    0.093922
     8  H    0.091463
     9  H    0.093828
    10  H    0.093120
    11  H    0.073851
    12  H    0.080809
 Sum of Mulliken charges =  -0.00000

 Dipole moment (field-independent basis, Debye):
    X=             -0.0140    Y=             -0.0864    Z=              0.3451  Tot=              0.3560
 Quadrupole moment (field-independent basis, Debye-Ang):
   XX=            -31.1284   YY=            -31.7774   ZZ=            -38.9912
   XY=              0.0298   XZ=             -0.7784   YZ=             -0.4839

 Normal termination of Gaussian 16 at Fri Nov 10 20:55:01 2023.
