 Gaussian 16, Revision B.01,
 Gaussian 16:  EM64L-G16RevB.01 20-Dec-2017

 ---------------------------------
 # TD=(NStates=1) B3LYP/6-31G(d,p)
 ---------------------------------

 -------
 EMISPCT
 -------
 Symbolic Z-matrix:
 Charge =  0 Multiplicity = 1

                         Standard orientation:
 ---------------------------------------------------------------------
 Center     Atomic      Atomic             Coordinates (Angstroms)
 Number     Number       Type             X           Y           Z
 ---------------------------------------------------------------------
      1          6           0       -0.762861   -1.208753    0.073492
      2          6           0        0.720555   -1.193572   -0.116566
      3          6           0        1.423981   -0.050983    0.020450
      4          6           0        0.738399    1.213081    0.088967
      5          6           0       -0.710932    1.273506   -0.112694
      6          6           0       -1.456424   -0.009110   -0.036199
      7          1           0       -1.295856   -2.189231    0.251839
      8          1           0       -2.561260    0.065109    0.214969
      9          1           0       -1.198099    2.233878   -0.079297
     10          1           0        1.539233    1.993783    0.184918
     11          1           0        2.549597   -0.161926    0.052430
     12          1           0        1.250076   -2.086629   -0.129553
 ---------------------------------------------------------------------

 SCF Done:  E(RB3LYP) =  -232.216204783     A.U. after   14 cycles

 Excitation energies and oscillator strengths:

 Excited State   1:      Singlet-A      5.1165 eV  242.32 nm  f=0.0013  <S**2>=0.000
      20 -> 22         0.50256
      21 -> 22        -0.14022
      21 -> 23         0.47061
 This state for optimization and/or second-order correction.
 Total Energy, E(TD-HF/TD-DFT) =  -232.028176392
 Copying the excited state density for this state as the 1-particle RhoCI density.

 The electronic state is 1-A.
 Alpha  occ. eigenvalues --  -10.20858 -10.20507 -10.20391 -10.20329 -10.19096
 Alpha  occ. eigenvalues --  -10.18676  -0.83115  -0.74002  -0.72296  -0.60401
 Alpha  occ. eigenvalues --   -0.57920  -0.50661  -0.46341  -0.42671  -0.41642
 Alpha  occ. eigenvalues --   -0.40624  -0.35085  -0.33726  -0.33250  -0.24977
 Alpha  occ. eigenvalues --   -0.23496
 Alpha virt. eigenvalues --   -0.01810   0.00083   0.08552   0.12691   0.12894
 Alpha virt. eigenvalues --    0.14554   0.15743   0.17032   0.19246   0.26866
 Alpha virt. eigenvalues --    0.27613   0.29143   0.32160   0.46524   0.47627

 Mulliken charges:
               1
     1  C   -0.093991
     2  C   -0.073983
     3  C   -0.085230
     4  C   -0.087957
     5  C   -0.109704
     6  C   -0.093861
     7  H    0.092538
     8  H    0.093278
     9  H    0.098212
    10  H    0.090979
    11  H    0.089040
    12  H    0.080678
 Sum of Mulliken charges =   0.00000

 Dipole moment (field-independent basis, Debye):
    X=              0.1328    Y=             -0.1015    Z=              0.3033  Tot=              0.3463
 Quadrupole moment (field-independent basis, Debye-Ang):
   XX=            -31.0106   YY=            -31.9877   ZZ=            -38.9727
   XY=             -0.2259   XZ=             -0.4251   YZ=             -0.1035

 Normal termination of Gaussian 16 at Fri Nov 10 20:41:07 2023.
