 Gaussian 16, Revision B.01,
 Gaussian 16:  EM64L-G16RevB.01 20-Dec-2017

 ---------------------------------
 # TD=(NStates=1) B3LYP/6-31G(d,p)
 ---------------------------------

 -------
 EMISPCT
 -------
 Symbolic Z-matrix:
 Charge =  0 Multiplicity = 1

                         Standard orientation:
 ---------------------------------------------------------------------
 Center     Atomic      Atomic             Coordinates (Angstroms)
 Number     Number       Type             X           Y           Z
 ---------------------------------------------------------------------
      1          6           0        0.831933    1.175112    0.017182
      2          6           0        1.406694   -0.114252   -0.004935
      3          6           0        0.606777   -1.276213    0.053082
      4          6           0       -0.803051   -1.158847   -0.039948
      5          6           0       -1.413606    0.124523    0.031750
      6          6           0       -0.630861    1.194710   -0.047306
      7          1           0        1.409624    2.227826   -0.019279
      8          1           0       -1.183398    2.155324   -0.050350
      9          1           0       -2.471741    0.268848    0.210436
     10          1           0       -1.469057   -1.938757   -0.141414
     11          1           0        1.164558   -2.198730   -0.064301
     12          1           0        2.562704   -0.184700    0.005956
 ---------------------------------------------------------------------

 SCF Done:  E(RB3LYP) =  -232.225000675     A.U. after   13 cycles

 Excitation energies and oscillator strengths:

 Excited State   1:      Singlet-A      5.3606 eV  231.29 nm  f=0.0004  <S**2>=0.000
      20 -> 22         0.51272
      21 -> 23        -0.48245
 This state for optimization and/or second-order correction.
 Total Energy, E(TD-HF/TD-DFT) =  -232.028002521
 Copying the excited state density for this state as the 1-particle RhoCI density.

 The electronic state is 1-A.
 Alpha  occ. eigenvalues --  -10.20780 -10.20098 -10.19490 -10.19028 -10.18725
 Alpha  occ. eigenvalues --  -10.18279  -0.84326  -0.74623  -0.72882  -0.60570
 Alpha  occ. eigenvalues --   -0.58232  -0.51249  -0.45458  -0.43598  -0.41881
 Alpha  occ. eigenvalues --   -0.40715  -0.35869  -0.34213  -0.32801  -0.25198
 Alpha  occ. eigenvalues --   -0.23886
 Alpha virt. eigenvalues --   -0.01095   0.00641   0.07878   0.12984   0.13421
 Alpha virt. eigenvalues --    0.15156   0.16730   0.17397   0.19487   0.28463
 Alpha virt. eigenvalues --    0.28779   0.30790   0.32981   0.46305   0.50231

 Mulliken charges:
               1
     1  C   -0.085519
     2  C   -0.100046
     3  C   -0.080743
     4  C   -0.093085
     5  C   -0.069573
     6  C   -0.086131
     7  H    0.090188
     8  H    0.074357
     9  H    0.091193
    10  H    0.084913
    11  H    0.090521
    12  H    0.083923
 Sum of Mulliken charges =  -0.00000

 Dipole moment (field-independent basis, Debye):
    X=             -0.1484    Y=             -0.0007    Z=             -0.0447  Tot=              0.1550
 Quadrupole moment (field-independent basis, Debye-Ang):
   XX=            -31.1604   YY=            -32.0308   ZZ=            -38.7451
   XY=             -0.0235   XZ=             -0.2889   YZ=              0.2921

 Normal termination of Gaussian 16 at Fri Nov 10 21:10:54 2023.
