 Gaussian 16, Revision B.01,
 Gaussian 16:  EM64L-G16RevB.01 20-Dec-2017

 ---------------------------------
 # TD=(NStates=1) B3LYP/6-31G(d,p)
 ---------------------------------

 -------
 EMISPCT
 -------
 Symbolic Z-matrix:
 Charge =  0 Multiplicity = 1

                         Standard orientation:
 ---------------------------------------------------------------------
 Center     Atomic      Atomic             Coordinates (Angstroms)
 Number     Number       Type             X           Y           Z
 ---------------------------------------------------------------------
      1          6           0        0.115845    1.410464   -0.066118
      2          6           0       -1.175657    0.795766    0.042546
      3          6           0       -1.314786   -0.598899   -0.002085
      4          6           0       -0.098987   -1.379644   -0.064797
      5          6           0        1.158039   -0.802253    0.125599
      6          6           0        1.283632    0.578179   -0.082179
      7          1           0        0.244422    2.471488    0.083839
      8          1           0        2.338311    1.072024    0.016154
      9          1           0        2.177989   -1.468526    0.064248
     10          1           0       -0.258368   -2.427370    0.019752
     11          1           0       -2.304505   -1.120898   -0.185578
     12          1           0       -2.006360    1.451608    0.283790
 ---------------------------------------------------------------------

 SCF Done:  E(RB3LYP) =  -232.224737206     A.U. after   13 cycles

 Excitation energies and oscillator strengths:

 Excited State   1:      Singlet-A      5.2003 eV  238.42 nm  f=0.0001  <S**2>=0.000
      20 -> 22         0.49639
      21 -> 23         0.49856
 This state for optimization and/or second-order correction.
 Total Energy, E(TD-HF/TD-DFT) =  -232.033628662
 Copying the excited state density for this state as the 1-particle RhoCI density.

 The electronic state is 1-A.
 Alpha  occ. eigenvalues --  -10.20354 -10.20243 -10.20099 -10.19675 -10.19592
 Alpha  occ. eigenvalues --  -10.19309  -0.83913  -0.73727  -0.73201  -0.59671
 Alpha  occ. eigenvalues --   -0.58726  -0.50652  -0.45444  -0.43370  -0.41077
 Alpha  occ. eigenvalues --   -0.40812  -0.35709  -0.34017  -0.32933  -0.24879
 Alpha  occ. eigenvalues --   -0.24199
 Alpha virt. eigenvalues --   -0.01172  -0.00518   0.07381   0.12614   0.13336
 Alpha virt. eigenvalues --    0.14048   0.16460   0.17813   0.18209   0.28080
 Alpha virt. eigenvalues --    0.28777   0.30487   0.31522   0.46845   0.47514

 Mulliken charges:
               1
     1  C   -0.086760
     2  C   -0.085268
     3  C   -0.094688
     4  C   -0.088362
     5  C   -0.079941
     6  C   -0.092127
     7  H    0.092939
     8  H    0.084157
     9  H    0.078247
    10  H    0.088397
    11  H    0.094574
    12  H    0.088832
 Sum of Mulliken charges =  -0.00000

 Dipole moment (field-independent basis, Debye):
    X=             -0.1028    Y=              0.0664    Z=              0.1656  Tot=              0.2059
 Quadrupole moment (field-independent basis, Debye-Ang):
   XX=            -31.7260   YY=            -31.7508   ZZ=            -38.8993
   XY=              0.3347   XZ=              0.0211   YZ=              0.6461

 Normal termination of Gaussian 16 at Fri Nov 10 20:32:15 2023.
