 Gaussian 16, Revision B.01,
 Gaussian 16:  EM64L-G16RevB.01 20-Dec-2017

 ---------------------------------
 # TD=(NStates=1) B3LYP/6-31G(d,p)
 ---------------------------------

 -------
 EMISPCT
 -------
 Symbolic Z-matrix:
 Charge =  0 Multiplicity = 1

                         Standard orientation:
 ---------------------------------------------------------------------
 Center     Atomic      Atomic             Coordinates (Angstroms)
 Number     Number       Type             X           Y           Z
 ---------------------------------------------------------------------
      1          6           0       -0.483278   -1.331495   -0.038998
      2          6           0        0.977805   -1.084944    0.013920
      3          6           0        1.403371    0.241099    0.020598
      4          6           0        0.475384    1.355672   -0.011875
      5          6           0       -0.956523    1.081557   -0.057558
      6          6           0       -1.435564   -0.289919    0.078610
      7          1           0       -0.980560   -2.329391   -0.306484
      8          1           0       -2.476437   -0.399063    0.343683
      9          1           0       -1.604660    2.012093   -0.313956
     10          1           0        1.008634    2.417722    0.299132
     11          1           0        2.531300    0.380534   -0.178239
     12          1           0        1.634550   -1.913717    0.127682
 ---------------------------------------------------------------------

 SCF Done:  E(RB3LYP) =  -232.196070515     A.U. after   12 cycles

 Excitation energies and oscillator strengths:

 Excited State   1:      Singlet-A      4.7306 eV  262.09 nm  f=0.0006  <S**2>=0.000
      20 -> 22         0.47025
      20 -> 23        -0.10770
      21 -> 22         0.16712
      21 -> 23         0.48871
 This state for optimization and/or second-order correction.
 Total Energy, E(TD-HF/TD-DFT) =  -232.022224967
 Copying the excited state density for this state as the 1-particle RhoCI density.

 The electronic state is 1-A.
 Alpha  occ. eigenvalues --  -10.21281 -10.21231 -10.20770 -10.20251 -10.20086
 Alpha  occ. eigenvalues --  -10.19850  -0.82724  -0.73607  -0.72021  -0.59195
 Alpha  occ. eigenvalues --   -0.58388  -0.49859  -0.46347  -0.42299  -0.41704
 Alpha  occ. eigenvalues --   -0.39596  -0.34481  -0.34001  -0.33903  -0.24029
 Alpha  occ. eigenvalues --   -0.22966
 Alpha virt. eigenvalues --   -0.01925  -0.01022   0.06338   0.12513   0.13475
 Alpha virt. eigenvalues --    0.13950   0.14587   0.15900   0.17137   0.26600
 Alpha virt. eigenvalues --    0.27765   0.29504   0.30688   0.44793   0.48927

 Mulliken charges:
               1
     1  C   -0.106984
     2  C   -0.079120
     3  C   -0.089611
     4  C   -0.097269
     5  C   -0.105666
     6  C   -0.085265
     7  H    0.091253
     8  H    0.103617
     9  H    0.095107
    10  H    0.089434
    11  H    0.087161
    12  H    0.097341
 Sum of Mulliken charges =  -0.00000

 Dipole moment (field-independent basis, Debye):
    X=             -0.0950    Y=             -0.1171    Z=              0.0087  Tot=              0.1510
 Quadrupole moment (field-independent basis, Debye-Ang):
   XX=            -31.3286   YY=            -32.2061   ZZ=            -38.9866
   XY=             -0.1213   XZ=             -0.0144   YZ=              0.2767

 Normal termination of Gaussian 16 at Fri Nov 10 21:40:40 2023.
