 Gaussian 16, Revision B.01,
 Gaussian 16:  EM64L-G16RevB.01 20-Dec-2017

 ---------------------------------
 # TD=(NStates=1) B3LYP/6-31G(d,p)
 ---------------------------------

 -------
 EMISPCT
 -------
 Symbolic Z-matrix:
 Charge =  0 Multiplicity = 1

                         Standard orientation:
 ---------------------------------------------------------------------
 Center     Atomic      Atomic             Coordinates (Angstroms)
 Number     Number       Type             X           Y           Z
 ---------------------------------------------------------------------
      1          6           0        1.067892   -0.958610   -0.003821
      2          6           0       -0.351172   -1.415560   -0.017563
      3          6           0       -1.303149   -0.442300    0.037014
      4          6           0       -1.112242    0.986042   -0.003320
      5          6           0        0.366889    1.416395   -0.088613
      6          6           0        1.405993    0.383828   -0.011443
      7          1           0        1.881336   -1.742382    0.317902
      8          1           0        2.442752    0.873688    0.162546
      9          1           0        0.486832    2.488862    0.059362
     10          1           0       -2.033488    1.846234    0.150729
     11          1           0       -2.521044   -0.718375    0.157371
     12          1           0       -0.701653   -2.566793   -0.321433
 ---------------------------------------------------------------------

 SCF Done:  E(RB3LYP) =  -232.163405159     A.U. after   13 cycles

 Excitation energies and oscillator strengths:

 Excited State   1:      Singlet-A      4.9790 eV  249.01 nm  f=0.0029  <S**2>=0.000
      20 -> 22         0.53807
      21 -> 23         0.44639
 This state for optimization and/or second-order correction.
 Total Energy, E(TD-HF/TD-DFT) =  -231.980428876
 Copying the excited state density for this state as the 1-particle RhoCI density.

 The electronic state is 1-A.
 Alpha  occ. eigenvalues --  -10.22519 -10.21645 -10.21348 -10.21314 -10.21119
 Alpha  occ. eigenvalues --  -10.21030  -0.82834  -0.73647  -0.71591  -0.59443
 Alpha  occ. eigenvalues --   -0.57187  -0.48870  -0.44568  -0.43225  -0.40499
 Alpha  occ. eigenvalues --   -0.39256  -0.35908  -0.33724  -0.30917  -0.25469
 Alpha  occ. eigenvalues --   -0.23301
 Alpha virt. eigenvalues --   -0.03145   0.00196   0.04975   0.09378   0.10855
 Alpha virt. eigenvalues --    0.12953   0.13630   0.15235   0.16360   0.24508
 Alpha virt. eigenvalues --    0.26631   0.28247   0.32606   0.45762   0.47634

 Mulliken charges:
               1
     1  C   -0.111723
     2  C   -0.093689
     3  C   -0.058720
     4  C   -0.096996
     5  C   -0.110960
     6  C   -0.072619
     7  H    0.092379
     8  H    0.098322
     9  H    0.099163
    10  H    0.092656
    11  H    0.064053
    12  H    0.098134
 Sum of Mulliken charges =  -0.00000

 Dipole moment (field-independent basis, Debye):
    X=              0.0496    Y=              0.2265    Z=              0.3022  Tot=              0.3809
 Quadrupole moment (field-independent basis, Debye-Ang):
   XX=            -32.3230   YY=            -31.3605   ZZ=            -39.5228
   XY=             -0.0822   XZ=              0.5136   YZ=              0.7091

 Normal termination of Gaussian 16 at Fri Nov 10 20:48:44 2023.
