 Gaussian 16, Revision B.01,
 Gaussian 16:  EM64L-G16RevB.01 20-Dec-2017

 ---------------------------------
 # TD=(NStates=1) B3LYP/6-31G(d,p)
 ---------------------------------

 -------
 EMISPCT
 -------
 Symbolic Z-matrix:
 Charge =  0 Multiplicity = 1

                         Standard orientation:
 ---------------------------------------------------------------------
 Center     Atomic      Atomic             Coordinates (Angstroms)
 Number     Number       Type             X           Y           Z
 ---------------------------------------------------------------------
      1          6           0       -1.364180    0.398584   -0.006121
      2          6           0       -0.308153    1.361291    0.013396
      3          6           0        1.041672    0.920937   -0.065762
      4          6           0        1.411097   -0.473274   -0.016381
      5          6           0        0.284867   -1.290752    0.041633
      6          6           0       -1.120025   -0.925964    0.031679
      7          1           0       -2.373379    0.736566   -0.309044
      8          1           0       -1.816793   -1.799740    0.008097
      9          1           0        0.653682   -2.346436   -0.157403
     10          1           0        2.482917   -0.746272    0.238889
     11          1           0        1.807068    1.643864   -0.199643
     12          1           0       -0.425157    2.567084    0.428441
 ---------------------------------------------------------------------

 SCF Done:  E(RB3LYP) =  -232.193942480     A.U. after   13 cycles

 Excitation energies and oscillator strengths:

 Excited State   1:      Singlet-A      5.0198 eV  246.99 nm  f=0.0032  <S**2>=0.000
      20 -> 22        -0.43277
      21 -> 23         0.54962
 This state for optimization and/or second-order correction.
 Total Energy, E(TD-HF/TD-DFT) =  -232.009467052
 Copying the excited state density for this state as the 1-particle RhoCI density.

 The electronic state is 1-A.
 Alpha  occ. eigenvalues --  -10.21033 -10.19920 -10.19861 -10.19629 -10.19611
 Alpha  occ. eigenvalues --  -10.19309  -0.84257  -0.74692  -0.72496  -0.59636
 Alpha  occ. eigenvalues --   -0.58642  -0.50393  -0.45857  -0.43539  -0.42652
 Alpha  occ. eigenvalues --   -0.38836  -0.35077  -0.34356  -0.32596  -0.25000
 Alpha  occ. eigenvalues --   -0.23217
 Alpha virt. eigenvalues --   -0.01271  -0.00633   0.06124   0.11792   0.13116
 Alpha virt. eigenvalues --    0.14754   0.16152   0.16724   0.18211   0.26507
 Alpha virt. eigenvalues --    0.28527   0.31501   0.32677   0.44827   0.48191

 Mulliken charges:
               1
     1  C   -0.105917
     2  C   -0.090409
     3  C   -0.087011
     4  C   -0.086318
     5  C   -0.105606
     6  C   -0.061207
     7  H    0.093057
     8  H    0.101364
     9  H    0.073536
    10  H    0.104899
    11  H    0.084052
    12  H    0.079560
 Sum of Mulliken charges =  -0.00000

 Dipole moment (field-independent basis, Debye):
    X=              0.1673    Y=             -0.0972    Z=              0.0142  Tot=              0.1940
 Quadrupole moment (field-independent basis, Debye-Ang):
   XX=            -31.3097   YY=            -32.6885   ZZ=            -38.6492
   XY=              0.4522   XZ=              0.6108   YZ=              0.5634

 Normal termination of Gaussian 16 at Fri Nov 10 22:11:18 2023.
