 Gaussian 16, Revision B.01,
 Gaussian 16:  EM64L-G16RevB.01 20-Dec-2017

 ---------------------------------
 # TD=(NStates=1) B3LYP/6-31G(d,p)
 ---------------------------------

 -------
 EMISPCT
 -------
 Symbolic Z-matrix:
 Charge =  0 Multiplicity = 1

                         Standard orientation:
 ---------------------------------------------------------------------
 Center     Atomic      Atomic             Coordinates (Angstroms)
 Number     Number       Type             X           Y           Z
 ---------------------------------------------------------------------
      1          6           0       -0.148755   -1.427513    0.141363
      2          6           0        1.217067   -0.848729   -0.000722
      3          6           0        1.292012    0.583048   -0.087811
      4          6           0        0.151002    1.450485    0.027377
      5          6           0       -1.175426    0.786795   -0.010096
      6          6           0       -1.321438   -0.598643   -0.088026
      7          1           0       -0.026590   -2.513350    0.171538
      8          1           0       -2.430508   -0.980719   -0.278544
      9          1           0       -2.096273    1.487197    0.089212
     10          1           0        0.202837    2.460023    0.384398
     11          1           0        2.261359    1.205631   -0.101620
     12          1           0        2.002403   -1.331446   -0.157493
 ---------------------------------------------------------------------

 SCF Done:  E(RB3LYP) =  -232.185057326     A.U. after   13 cycles

 Excitation energies and oscillator strengths:

 Excited State   1:      Singlet-A      4.8790 eV  254.12 nm  f=0.0017  <S**2>=0.000
      20 -> 22         0.52925
      21 -> 22         0.10618
      21 -> 23        -0.45298
 This state for optimization and/or second-order correction.
 Total Energy, E(TD-HF/TD-DFT) =  -232.005757579
 Copying the excited state density for this state as the 1-particle RhoCI density.

 The electronic state is 1-A.
 Alpha  occ. eigenvalues --  -10.21249 -10.21130 -10.20441 -10.20223 -10.19784
 Alpha  occ. eigenvalues --  -10.19117  -0.82571  -0.73652  -0.72486  -0.60378
 Alpha  occ. eigenvalues --   -0.58556  -0.50647  -0.46875  -0.42881  -0.41485
 Alpha  occ. eigenvalues --   -0.40498  -0.35434  -0.34120  -0.31907  -0.24441
 Alpha  occ. eigenvalues --   -0.23453
 Alpha virt. eigenvalues --   -0.02356  -0.00454   0.08346   0.11533   0.12945
 Alpha virt. eigenvalues --    0.14767   0.14965   0.17756   0.19021   0.26661
 Alpha virt. eigenvalues --    0.27093   0.29262   0.31053   0.45342   0.47880

 Mulliken charges:
               1
     1  C   -0.110014
     2  C   -0.059734
     3  C   -0.096001
     4  C   -0.090218
     5  C   -0.092814
     6  C   -0.081689
     7  H    0.095913
     8  H    0.092721
     9  H    0.084555
    10  H    0.099674
    11  H    0.078543
    12  H    0.079063
 Sum of Mulliken charges =  -0.00000

 Dipole moment (field-independent basis, Debye):
    X=              0.0587    Y=             -0.0325    Z=              0.0784  Tot=              0.1032
 Quadrupole moment (field-independent basis, Debye-Ang):
   XX=            -31.6628   YY=            -31.4769   ZZ=            -38.9679
   XY=             -0.5934   XZ=             -0.0019   YZ=              0.9327

 Normal termination of Gaussian 16 at Fri Nov 10 20:05:35 2023.
