 Gaussian 16, Revision B.01,
 Gaussian 16:  EM64L-G16RevB.01 20-Dec-2017

 ---------------------------------
 # TD=(NStates=1) B3LYP/6-31G(d,p)
 ---------------------------------

 -------
 EMISPCT
 -------
 Symbolic Z-matrix:
 Charge =  0 Multiplicity = 1

                         Standard orientation:
 ---------------------------------------------------------------------
 Center     Atomic      Atomic             Coordinates (Angstroms)
 Number     Number       Type             X           Y           Z
 ---------------------------------------------------------------------
      1          6           0       -0.075553   -1.394433   -0.016994
      2          6           0        1.209665   -0.841310    0.039308
      3          6           0        1.329939    0.621167    0.014186
      4          6           0        0.093260    1.415872   -0.019102
      5          6           0       -1.227370    0.792028   -0.034066
      6          6           0       -1.356901   -0.607117   -0.025511
      7          1           0       -0.197668   -2.438079    0.074052
      8          1           0       -2.369163   -1.208455    0.029573
      9          1           0       -1.933965    1.491602    0.233639
     10          1           0        0.259315    2.454067    0.068121
     11          1           0        2.199548    1.144568   -0.108588
     12          1           0        2.203697   -1.360953   -0.043720
 ---------------------------------------------------------------------

 SCF Done:  E(RB3LYP) =  -232.211556240     A.U. after   13 cycles

 Excitation energies and oscillator strengths:

 Excited State   1:      Singlet-A      4.9881 eV  248.56 nm  f=0.0021  <S**2>=0.000
      20 -> 22         0.44425
      20 -> 23         0.17410
      21 -> 22        -0.25442
      21 -> 23         0.45529
 This state for optimization and/or second-order correction.
 Total Energy, E(TD-HF/TD-DFT) =  -232.028245212
 Copying the excited state density for this state as the 1-particle RhoCI density.

 The electronic state is 1-A.
 Alpha  occ. eigenvalues --  -10.21425 -10.20346 -10.19851 -10.19506 -10.19418
 Alpha  occ. eigenvalues --  -10.19371  -0.82327  -0.73641  -0.72431  -0.59775
 Alpha  occ. eigenvalues --   -0.59368  -0.50826  -0.47190  -0.43066  -0.42096
 Alpha  occ. eigenvalues --   -0.39970  -0.35411  -0.33780  -0.32781  -0.24665
 Alpha  occ. eigenvalues --   -0.23363
 Alpha virt. eigenvalues --   -0.01625  -0.00594   0.09009   0.12905   0.13460
 Alpha virt. eigenvalues --    0.14635   0.17101   0.17268   0.19775   0.25890
 Alpha virt. eigenvalues --    0.28036   0.28380   0.31101   0.47095   0.48221

 Mulliken charges:
               1
     1  C   -0.096343
     2  C   -0.083312
     3  C   -0.087992
     4  C   -0.099563
     5  C   -0.080620
     6  C   -0.097588
     7  H    0.086805
     8  H    0.096417
     9  H    0.092967
    10  H    0.086851
    11  H    0.087482
    12  H    0.094896
 Sum of Mulliken charges =  -0.00000

 Dipole moment (field-independent basis, Debye):
    X=              0.0999    Y=              0.0855    Z=              0.1655  Tot=              0.2113
 Quadrupole moment (field-independent basis, Debye-Ang):
   XX=            -31.1172   YY=            -31.4058   ZZ=            -39.0246
   XY=              0.5101   XZ=             -0.7375   YZ=              0.2144

 Normal termination of Gaussian 16 at Fri Nov 10 20:46:50 2023.
