 Gaussian 16, Revision B.01,
 Gaussian 16:  EM64L-G16RevB.01 20-Dec-2017

 ---------------------------------
 # TD=(NStates=1) B3LYP/6-31G(d,p)
 ---------------------------------

 -------
 EMISPCT
 -------
 Symbolic Z-matrix:
 Charge =  0 Multiplicity = 1

                         Standard orientation:
 ---------------------------------------------------------------------
 Center     Atomic      Atomic             Coordinates (Angstroms)
 Number     Number       Type             X           Y           Z
 ---------------------------------------------------------------------
      1          6           0        0.485842   -1.264955    0.009853
      2          6           0       -0.939817   -1.098825    0.057209
      3          6           0       -1.414539    0.249636   -0.040166
      4          6           0       -0.522767    1.297796    0.022426
      5          6           0        0.912734    1.099277   -0.077326
      6          6           0        1.456342   -0.287614   -0.002349
      7          1           0        0.811229   -2.233738    0.109195
      8          1           0        2.472182   -0.551053   -0.291383
      9          1           0        1.592414    2.023925    0.457473
     10          1           0       -0.843154    2.247670    0.089703
     11          1           0       -2.282215    0.509380   -0.226289
     12          1           0       -1.617226   -1.968076    0.043417
 ---------------------------------------------------------------------

 SCF Done:  E(RB3LYP) =  -232.174790945     A.U. after   14 cycles

 Excitation energies and oscillator strengths:

 Excited State   1:      Singlet-A      4.9785 eV  249.04 nm  f=0.0085  <S**2>=0.000
      20 -> 22         0.49971
      20 -> 23        -0.12251
      21 -> 22        -0.26446
      21 -> 23        -0.40617
 This state for optimization and/or second-order correction.
 Total Energy, E(TD-HF/TD-DFT) =  -231.991832612
 Copying the excited state density for this state as the 1-particle RhoCI density.

 The electronic state is 1-A.
 Alpha  occ. eigenvalues --  -10.21288 -10.20185 -10.19948 -10.18562 -10.18312
 Alpha  occ. eigenvalues --  -10.17761  -0.83760  -0.75335  -0.72319  -0.61023
 Alpha  occ. eigenvalues --   -0.59276  -0.51453  -0.47489  -0.43075  -0.42552
 Alpha  occ. eigenvalues --   -0.40281  -0.36878  -0.33036  -0.32383  -0.25164
 Alpha  occ. eigenvalues --   -0.23589
 Alpha virt. eigenvalues --   -0.02876   0.00182   0.08872   0.12428   0.13572
 Alpha virt. eigenvalues --    0.15644   0.16940   0.18856   0.20557   0.26177
 Alpha virt. eigenvalues --    0.29187   0.30181   0.31706   0.46429   0.47696

 Mulliken charges:
               1
     1  C   -0.074326
     2  C   -0.094110
     3  C   -0.034341
     4  C   -0.077673
     5  C   -0.118429
     6  C   -0.093895
     7  H    0.079674
     8  H    0.102377
     9  H    0.068159
    10  H    0.085040
    11  H    0.062399
    12  H    0.095124
 Sum of Mulliken charges =  -0.00000

 Dipole moment (field-independent basis, Debye):
    X=             -0.3561    Y=             -0.2828    Z=              0.0516  Tot=              0.4577
 Quadrupole moment (field-independent basis, Debye-Ang):
   XX=            -31.6735   YY=            -31.8473   ZZ=            -38.3756
   XY=             -0.7143   XZ=              0.3013   YZ=              0.6519

 Normal termination of Gaussian 16 at Fri Nov 10 21:43:19 2023.
