 Gaussian 16, Revision B.01,
 Gaussian 16:  EM64L-G16RevB.01 20-Dec-2017

 ---------------------------------
 # TD=(NStates=1) B3LYP/6-31G(d,p)
 ---------------------------------

 -------
 EMISPCT
 -------
 Symbolic Z-matrix:
 Charge =  0 Multiplicity = 1

                         Standard orientation:
 ---------------------------------------------------------------------
 Center     Atomic      Atomic             Coordinates (Angstroms)
 Number     Number       Type             X           Y           Z
 ---------------------------------------------------------------------
      1          6           0       -1.463770    0.284928   -0.008374
      2          6           0       -0.434463    1.342056   -0.030425
      3          6           0        1.021857    1.037089   -0.011832
      4          6           0        1.502499   -0.330317   -0.079416
      5          6           0        0.402874   -1.314417    0.016806
      6          6           0       -0.965396   -0.996135    0.063791
      7          1           0       -2.615147    0.390275   -0.167522
      8          1           0       -1.720991   -1.891865    0.017599
      9          1           0        0.713804   -2.329260   -0.099203
     10          1           0        2.533320   -0.706225    0.223357
     11          1           0        1.558319    2.069558    0.139490
     12          1           0       -0.850915    2.328288    0.182973
 ---------------------------------------------------------------------

 SCF Done:  E(RB3LYP) =  -232.199728258     A.U. after   14 cycles

 Excitation energies and oscillator strengths:

 Excited State   1:      Singlet-A      4.9286 eV  251.56 nm  f=0.0071  <S**2>=0.000
      20 -> 22        -0.39064
      20 -> 23        -0.21419
      21 -> 22        -0.37016
      21 -> 23         0.40522
 This state for optimization and/or second-order correction.
 Total Energy, E(TD-HF/TD-DFT) =  -232.018605553
 Copying the excited state density for this state as the 1-particle RhoCI density.

 The electronic state is 1-A.
 Alpha  occ. eigenvalues --  -10.21887 -10.21478 -10.20625 -10.20582 -10.19770
 Alpha  occ. eigenvalues --  -10.19716  -0.82832  -0.73490  -0.72212  -0.59666
 Alpha  occ. eigenvalues --   -0.58251  -0.49960  -0.45890  -0.43007  -0.40984
 Alpha  occ. eigenvalues --   -0.39508  -0.35229  -0.34541  -0.32044  -0.25067
 Alpha  occ. eigenvalues --   -0.23380
 Alpha virt. eigenvalues --   -0.02260  -0.00626   0.07414   0.11335   0.12398
 Alpha virt. eigenvalues --    0.13682   0.15611   0.16393   0.18057   0.25399
 Alpha virt. eigenvalues --    0.27863   0.29413   0.30369   0.46000   0.48680

 Mulliken charges:
               1
     1  C   -0.089022
     2  C   -0.113212
     3  C   -0.089926
     4  C   -0.110712
     5  C   -0.094318
     6  C   -0.061410
     7  H    0.097719
     8  H    0.076015
     9  H    0.090116
    10  H    0.107090
    11  H    0.093006
    12  H    0.094652
 Sum of Mulliken charges =  -0.00000

 Dipole moment (field-independent basis, Debye):
    X=             -0.1465    Y=             -0.0782    Z=              0.2072  Tot=              0.2655
 Quadrupole moment (field-independent basis, Debye-Ang):
   XX=            -31.3904   YY=            -31.9456   ZZ=            -39.2489
   XY=             -0.4825   XZ=              0.8356   YZ=              0.5977

 Normal termination of Gaussian 16 at Fri Nov 10 21:37:18 2023.
