 Gaussian 16, Revision B.01,
 Gaussian 16:  EM64L-G16RevB.01 20-Dec-2017

 ---------------------------------
 # TD=(NStates=1) B3LYP/6-31G(d,p)
 ---------------------------------

 -------
 EMISPCT
 -------
 Symbolic Z-matrix:
 Charge =  0 Multiplicity = 1

                         Standard orientation:
 ---------------------------------------------------------------------
 Center     Atomic      Atomic             Coordinates (Angstroms)
 Number     Number       Type             X           Y           Z
 ---------------------------------------------------------------------
      1          6           0       -1.477019    0.008012   -0.108764
      2          6           0       -0.727766   -1.198100   -0.037780
      3          6           0        0.716077   -1.254054    0.004241
      4          6           0        1.439330   -0.014243    0.012857
      5          6           0        0.722169    1.228916   -0.057454
      6          6           0       -0.706575    1.211125    0.020305
      7          1           0       -2.543157    0.036404    0.265678
      8          1           0       -1.135263    2.043154    0.419949
      9          1           0        1.290582    2.184645   -0.067227
     10          1           0        2.542734   -0.008995    0.056865
     11          1           0        1.401426   -2.118097    0.221594
     12          1           0       -1.353618   -2.027044    0.102719
 ---------------------------------------------------------------------

 SCF Done:  E(RB3LYP) =  -232.218947982     A.U. after   13 cycles

 Excitation energies and oscillator strengths:

 Excited State   1:      Singlet-A      4.9718 eV  249.37 nm  f=0.0034  <S**2>=0.000
      20 -> 22        -0.14176
      20 -> 23        -0.41338
      21 -> 22         0.52629
      21 -> 23        -0.17754
 This state for optimization and/or second-order correction.
 Total Energy, E(TD-HF/TD-DFT) =  -232.036236190
 Copying the excited state density for this state as the 1-particle RhoCI density.

 The electronic state is 1-A.
 Alpha  occ. eigenvalues --  -10.20328 -10.19975 -10.19920 -10.19820 -10.19759
 Alpha  occ. eigenvalues --  -10.18910  -0.83138  -0.73594  -0.73055  -0.59985
 Alpha  occ. eigenvalues --   -0.58906  -0.51007  -0.46365  -0.43351  -0.41627
 Alpha  occ. eigenvalues --   -0.40561  -0.35253  -0.34455  -0.32868  -0.24635
 Alpha  occ. eigenvalues --   -0.23544
 Alpha virt. eigenvalues --   -0.01260  -0.01038   0.08903   0.12096   0.13498
 Alpha virt. eigenvalues --    0.14632   0.16897   0.18019   0.19845   0.27687
 Alpha virt. eigenvalues --    0.28638   0.29885   0.30757   0.46894   0.48571

 Mulliken charges:
               1
     1  C   -0.103482
     2  C   -0.094095
     3  C   -0.083604
     4  C   -0.090812
     5  C   -0.089212
     6  C   -0.086228
     7  H    0.095561
     8  H    0.090785
     9  H    0.087762
    10  H    0.090524
    11  H    0.093584
    12  H    0.089216
 Sum of Mulliken charges =   0.00000

 Dipole moment (field-independent basis, Debye):
    X=              0.1152    Y=              0.0611    Z=              0.6521  Tot=              0.6650
 Quadrupole moment (field-independent basis, Debye-Ang):
   XX=            -31.0252   YY=            -32.3934   ZZ=            -38.6710
   XY=              0.0695   XZ=             -0.8048   YZ=              0.0594

 Normal termination of Gaussian 16 at Fri Nov 10 22:22:33 2023.
