 Gaussian 16, Revision B.01,
 Gaussian 16:  EM64L-G16RevB.01 20-Dec-2017

 ---------------------------------
 # TD=(NStates=1) B3LYP/6-31G(d,p)
 ---------------------------------

 -------
 EMISPCT
 -------
 Symbolic Z-matrix:
 Charge =  0 Multiplicity = 1

                         Standard orientation:
 ---------------------------------------------------------------------
 Center     Atomic      Atomic             Coordinates (Angstroms)
 Number     Number       Type             X           Y           Z
 ---------------------------------------------------------------------
      1          6           0        1.463817    0.141116   -0.041568
      2          6           0        0.549803    1.262071    0.003115
      3          6           0       -0.901855    1.198847    0.000399
      4          6           0       -1.502007   -0.178328    0.043868
      5          6           0       -0.535924   -1.304983   -0.065892
      6          6           0        0.870533   -1.097579    0.035446
      7          1           0        2.728091    0.436751    0.115348
      8          1           0        1.501406   -1.979562    0.150122
      9          1           0       -0.988392   -2.310442   -0.178531
     10          1           0       -2.469007   -0.535979    0.197216
     11          1           0       -1.458349    2.082087   -0.106835
     12          1           0        1.020048    2.180284   -0.029525
 ---------------------------------------------------------------------

 SCF Done:  E(RB3LYP) =  -232.193962010     A.U. after   13 cycles

 Excitation energies and oscillator strengths:

 Excited State   1:      Singlet-A      4.9315 eV  251.41 nm  f=0.0029  <S**2>=0.000
      20 -> 22        -0.33669
      20 -> 23        -0.32489
      21 -> 22         0.42727
      21 -> 23        -0.31319
 This state for optimization and/or second-order correction.
 Total Energy, E(TD-HF/TD-DFT) =  -232.012732306
 Copying the excited state density for this state as the 1-particle RhoCI density.

 The electronic state is 1-A.
 Alpha  occ. eigenvalues --  -10.21266 -10.20762 -10.20733 -10.20205 -10.19476
 Alpha  occ. eigenvalues --  -10.19366  -0.82686  -0.73259  -0.72690  -0.60002
 Alpha  occ. eigenvalues --   -0.58933  -0.50644  -0.46499  -0.43006  -0.41755
 Alpha  occ. eigenvalues --   -0.39657  -0.35338  -0.33812  -0.33039  -0.24305
 Alpha  occ. eigenvalues --   -0.23554
 Alpha virt. eigenvalues --   -0.01633  -0.00741   0.06361   0.11649   0.13950
 Alpha virt. eigenvalues --    0.15246   0.15838   0.17810   0.18403   0.26138
 Alpha virt. eigenvalues --    0.27096   0.29109   0.31568   0.46017   0.47985

 Mulliken charges:
               1
     1  C   -0.077620
     2  C   -0.086308
     3  C   -0.092245
     4  C   -0.095538
     5  C   -0.099439
     6  C   -0.081033
     7  H    0.077763
     8  H    0.085887
     9  H    0.090714
    10  H    0.097650
    11  H    0.097239
    12  H    0.082930
 Sum of Mulliken charges =  -0.00000

 Dipole moment (field-independent basis, Debye):
    X=             -0.1282    Y=             -0.0239    Z=              0.0987  Tot=              0.1636
 Quadrupole moment (field-independent basis, Debye-Ang):
   XX=            -31.2725   YY=            -31.4722   ZZ=            -39.1402
   XY=              0.6067   XZ=              0.2551   YZ=             -0.2107

 Normal termination of Gaussian 16 at Fri Nov 10 22:32:14 2023.
