 Gaussian 16, Revision B.01,
 Gaussian 16:  EM64L-G16RevB.01 20-Dec-2017

 ---------------------------------
 # TD=(NStates=1) B3LYP/6-31G(d,p)
 ---------------------------------

 -------
 EMISPCT
 -------
 Symbolic Z-matrix:
 Charge =  0 Multiplicity = 1

                         Standard orientation:
 ---------------------------------------------------------------------
 Center     Atomic      Atomic             Coordinates (Angstroms)
 Number     Number       Type             X           Y           Z
 ---------------------------------------------------------------------
      1          6           0       -1.037378    0.987887    0.016809
      2          6           0       -1.405457   -0.357818   -0.066453
      3          6           0       -0.358570   -1.348149    0.058650
      4          6           0        0.977418   -0.999225   -0.024745
      5          6           0        1.419358    0.363320   -0.011972
      6          6           0        0.366255    1.325227   -0.004809
      7          1           0       -1.733268    1.778134    0.212345
      8          1           0        0.756872    2.343844    0.030629
      9          1           0        2.518394    0.594015   -0.035074
     10          1           0        1.757595   -1.682772    0.003334
     11          1           0       -0.611359   -2.262043    0.171015
     12          1           0       -2.457990   -0.598632   -0.187126
 ---------------------------------------------------------------------

 SCF Done:  E(RB3LYP) =  -232.222966872     A.U. after   13 cycles

 Excitation energies and oscillator strengths:

 Excited State   1:      Singlet-A      5.1971 eV  238.56 nm  f=0.0018  <S**2>=0.000
      20 -> 22         0.36558
      20 -> 23         0.30807
      21 -> 22         0.38978
      21 -> 23        -0.34509
 This state for optimization and/or second-order correction.
 Total Energy, E(TD-HF/TD-DFT) =  -232.031976036
 Copying the excited state density for this state as the 1-particle RhoCI density.

 The electronic state is 1-A.
 Alpha  occ. eigenvalues --  -10.19570 -10.19569 -10.19350 -10.19300 -10.18359
 Alpha  occ. eigenvalues --  -10.17953  -0.83617  -0.73953  -0.73417  -0.60438
 Alpha  occ. eigenvalues --   -0.59367  -0.51828  -0.47069  -0.43486  -0.41884
 Alpha  occ. eigenvalues --   -0.41279  -0.35953  -0.34244  -0.33018  -0.24378
 Alpha  occ. eigenvalues --   -0.23850
 Alpha virt. eigenvalues --   -0.00775   0.00035   0.09705   0.13643   0.14948
 Alpha virt. eigenvalues --    0.15675   0.17553   0.18273   0.19905   0.28562
 Alpha virt. eigenvalues --    0.28749   0.30188   0.32360   0.46933   0.50546

 Mulliken charges:
               1
     1  C   -0.081610
     2  C   -0.101181
     3  C   -0.056038
     4  C   -0.080407
     5  C   -0.090842
     6  C   -0.097028
     7  H    0.092749
     8  H    0.079938
     9  H    0.093769
    10  H    0.078836
    11  H    0.069643
    12  H    0.092171
 Sum of Mulliken charges =  -0.00000

 Dipole moment (field-independent basis, Debye):
    X=              0.0102    Y=             -0.0749    Z=              0.1314  Tot=              0.1516
 Quadrupole moment (field-independent basis, Debye-Ang):
   XX=            -30.5589   YY=            -32.0652   ZZ=            -38.5666
   XY=              0.0631   XZ=             -0.0749   YZ=              0.1130

 Normal termination of Gaussian 16 at Fri Nov 10 23:00:55 2023.
