 Gaussian 16, Revision B.01,
 Gaussian 16:  EM64L-G16RevB.01 20-Dec-2017

 ---------------------------------
 # TD=(NStates=1) B3LYP/6-31G(d,p)
 ---------------------------------

 -------
 EMISPCT
 -------
 Symbolic Z-matrix:
 Charge =  0 Multiplicity = 1

                         Standard orientation:
 ---------------------------------------------------------------------
 Center     Atomic      Atomic             Coordinates (Angstroms)
 Number     Number       Type             X           Y           Z
 ---------------------------------------------------------------------
      1          6           0       -0.190425   -1.438756    0.002980
      2          6           0       -1.361933   -0.524944    0.031694
      3          6           0       -1.110251    0.874624    0.022812
      4          6           0        0.213440    1.383598   -0.015949
      5          6           0        1.300902    0.529774   -0.094646
      6          6           0        1.123285   -0.878033   -0.007514
      7          1           0       -0.342529   -2.413046   -0.041698
      8          1           0        2.261364   -1.366158    0.192574
      9          1           0        2.368424    1.035811    0.280437
     10          1           0        0.279182    2.479766   -0.030337
     11          1           0       -2.081557    1.535811    0.125266
     12          1           0       -2.334990   -0.949764   -0.162502
 ---------------------------------------------------------------------

 SCF Done:  E(RB3LYP) =  -232.193621110     A.U. after   13 cycles

 Excitation energies and oscillator strengths:

 Excited State   1:      Singlet-A      5.1207 eV  242.12 nm  f=0.0011  <S**2>=0.000
      20 -> 22         0.47500
      20 -> 23         0.19417
      21 -> 22        -0.22863
      21 -> 23         0.42889
 This state for optimization and/or second-order correction.
 Total Energy, E(TD-HF/TD-DFT) =  -232.005438225
 Copying the excited state density for this state as the 1-particle RhoCI density.

 The electronic state is 1-A.
 Alpha  occ. eigenvalues --  -10.21332 -10.20480 -10.20433 -10.20299 -10.19726
 Alpha  occ. eigenvalues --  -10.19597  -0.83602  -0.73672  -0.73104  -0.60399
 Alpha  occ. eigenvalues --   -0.58288  -0.50314  -0.46071  -0.43560  -0.41138
 Alpha  occ. eigenvalues --   -0.39693  -0.35513  -0.33762  -0.32536  -0.24620
 Alpha  occ. eigenvalues --   -0.24447
 Alpha virt. eigenvalues --   -0.01555  -0.00690   0.06168   0.10691   0.12556
 Alpha virt. eigenvalues --    0.14546   0.16005   0.17027   0.18475   0.27250
 Alpha virt. eigenvalues --    0.28525   0.30307   0.31290   0.45843   0.50139

 Mulliken charges:
               1
     1  C   -0.090203
     2  C   -0.093696
     3  C   -0.089762
     4  C   -0.071017
     5  C   -0.093404
     6  C   -0.081144
     7  H    0.086189
     8  H    0.082895
     9  H    0.076948
    10  H    0.091712
    11  H    0.083336
    12  H    0.098146
 Sum of Mulliken charges =  -0.00000

 Dipole moment (field-independent basis, Debye):
    X=             -0.2650    Y=              0.0187    Z=              0.1783  Tot=              0.3199
 Quadrupole moment (field-independent basis, Debye-Ang):
   XX=            -31.6100   YY=            -32.1153   ZZ=            -39.0217
   XY=              0.3819   XZ=              1.0094   YZ=              0.3761

 Normal termination of Gaussian 16 at Fri Nov 10 20:46:52 2023.
