 Gaussian 16, Revision B.01,
 Gaussian 16:  EM64L-G16RevB.01 20-Dec-2017

 ---------------------------------
 # TD=(NStates=1) B3LYP/6-31G(d,p)
 ---------------------------------

 -------
 EMISPCT
 -------
 Symbolic Z-matrix:
 Charge =  0 Multiplicity = 1

                         Standard orientation:
 ---------------------------------------------------------------------
 Center     Atomic      Atomic             Coordinates (Angstroms)
 Number     Number       Type             X           Y           Z
 ---------------------------------------------------------------------
      1          6           0       -0.063853   -1.322582   -0.034518
      2          6           0       -1.347485   -0.607458    0.063191
      3          6           0       -1.182338    0.774279   -0.061230
      4          6           0        0.115014    1.389846   -0.047757
      5          6           0        1.322038    0.558666    0.013387
      6          6           0        1.122638   -0.780995    0.018383
      7          1           0       -0.052556   -2.390041   -0.226029
      8          1           0        1.843620   -1.514810   -0.003484
      9          1           0        2.316773    1.077746    0.160055
     10          1           0        0.174910    2.366846    0.126596
     11          1           0       -1.851211    1.512364   -0.028243
     12          1           0       -2.227623   -1.122646    0.262364
 ---------------------------------------------------------------------

 SCF Done:  E(RB3LYP) =  -232.200822279     A.U. after   13 cycles

 Excitation energies and oscillator strengths:

 Excited State   1:      Singlet-A      5.2984 eV  234.00 nm  f=0.0074  <S**2>=0.000
      20 -> 22         0.47032
      20 -> 23         0.10323
      21 -> 22         0.26102
      21 -> 23        -0.44647
 This state for optimization and/or second-order correction.
 Total Energy, E(TD-HF/TD-DFT) =  -232.006110147
 Copying the excited state density for this state as the 1-particle RhoCI density.

 The electronic state is 1-A.
 Alpha  occ. eigenvalues --  -10.19421 -10.19419 -10.18417 -10.18367 -10.18065
 Alpha  occ. eigenvalues --  -10.16758  -0.84737  -0.75572  -0.72999  -0.61804
 Alpha  occ. eigenvalues --   -0.59022  -0.52456  -0.46909  -0.44522  -0.42166
 Alpha  occ. eigenvalues --   -0.40956  -0.36416  -0.34598  -0.32456  -0.25529
 Alpha  occ. eigenvalues --   -0.23154
 Alpha virt. eigenvalues --   -0.01525   0.01231   0.10070   0.14137   0.15377
 Alpha virt. eigenvalues --    0.16092   0.17204   0.20152   0.20913   0.27488
 Alpha virt. eigenvalues --    0.28951   0.32400   0.32943   0.47010   0.50631

 Mulliken charges:
               1
     1  C   -0.103838
     2  C   -0.082661
     3  C   -0.072200
     4  C   -0.095567
     5  C   -0.104445
     6  C   -0.028986
     7  H    0.075819
     8  H    0.076606
     9  H    0.085121
    10  H    0.080679
    11  H    0.076147
    12  H    0.093325
 Sum of Mulliken charges =  -0.00000

 Dipole moment (field-independent basis, Debye):
    X=             -0.0486    Y=             -0.0029    Z=              0.2201  Tot=              0.2254
 Quadrupole moment (field-independent basis, Debye-Ang):
   XX=            -31.8466   YY=            -31.1216   ZZ=            -38.1756
   XY=             -0.0461   XZ=             -0.1612   YZ=              0.5362

 Normal termination of Gaussian 16 at Fri Nov 10 21:58:32 2023.
