 Gaussian 16, Revision B.01,
 Gaussian 16:  EM64L-G16RevB.01 20-Dec-2017

 ---------------------------------
 # TD=(NStates=1) B3LYP/6-31G(d,p)
 ---------------------------------

 -------
 EMISPCT
 -------
 Symbolic Z-matrix:
 Charge =  0 Multiplicity = 1

                         Standard orientation:
 ---------------------------------------------------------------------
 Center     Atomic      Atomic             Coordinates (Angstroms)
 Number     Number       Type             X           Y           Z
 ---------------------------------------------------------------------
      1          6           0       -1.476041   -0.061678   -0.056802
      2          6           0       -0.643576   -1.233686    0.070838
      3          6           0        0.740905   -1.156792    0.029172
      4          6           0        1.478138    0.088841   -0.003805
      5          6           0        0.660803    1.208940    0.029177
      6          6           0       -0.757446    1.164986   -0.048677
      7          1           0       -2.635614   -0.080032   -0.004751
      8          1           0       -1.385412    2.003214   -0.053182
      9          1           0        1.111501    2.230818    0.365415
     10          1           0        2.622234   -0.025368   -0.363938
     11          1           0        1.491120   -1.998706   -0.102238
     12          1           0       -1.220527   -2.193588    0.039273
 ---------------------------------------------------------------------

 SCF Done:  E(RB3LYP) =  -232.209820370     A.U. after   13 cycles

 Excitation energies and oscillator strengths:

 Excited State   1:      Singlet-A      5.1261 eV  241.87 nm  f=0.0031  <S**2>=0.000
      20 -> 22         0.46909
      20 -> 23         0.21502
      21 -> 22         0.27899
      21 -> 23        -0.39415
 This state for optimization and/or second-order correction.
 Total Energy, E(TD-HF/TD-DFT) =  -232.021441366
 Copying the excited state density for this state as the 1-particle RhoCI density.

 The electronic state is 1-A.
 Alpha  occ. eigenvalues --  -10.20568 -10.20539 -10.20153 -10.19916 -10.19825
 Alpha  occ. eigenvalues --  -10.19184  -0.83942  -0.73720  -0.73171  -0.59426
 Alpha  occ. eigenvalues --   -0.58802  -0.50355  -0.45089  -0.44448  -0.40944
 Alpha  occ. eigenvalues --   -0.39651  -0.36260  -0.34790  -0.31293  -0.24485
 Alpha  occ. eigenvalues --   -0.24322
 Alpha virt. eigenvalues --   -0.01568  -0.00240   0.07035   0.11341   0.12720
 Alpha virt. eigenvalues --    0.14777   0.15831   0.17301   0.18363   0.26835
 Alpha virt. eigenvalues --    0.29202   0.29479   0.33497   0.46813   0.49965

 Mulliken charges:
               1
     1  C   -0.095336
     2  C   -0.089051
     3  C   -0.082863
     4  C   -0.096943
     5  C   -0.094660
     6  C   -0.075462
     7  H    0.097345
     8  H    0.087405
     9  H    0.080164
    10  H    0.099761
    11  H    0.084354
    12  H    0.085287
 Sum of Mulliken charges =  -0.00000

 Dipole moment (field-independent basis, Debye):
    X=             -0.1750    Y=             -0.0134    Z=             -0.0940  Tot=              0.1991
 Quadrupole moment (field-independent basis, Debye-Ang):
   XX=            -30.5553   YY=            -33.1416   ZZ=            -38.8463
   XY=             -0.6291   XZ=             -0.6188   YZ=              0.6638

 Normal termination of Gaussian 16 at Fri Nov 10 21:25:15 2023.
