 Gaussian 16, Revision B.01,
 Gaussian 16:  EM64L-G16RevB.01 20-Dec-2017

 ---------------------------------
 # TD=(NStates=1) B3LYP/6-31G(d,p)
 ---------------------------------

 -------
 EMISPCT
 -------
 Symbolic Z-matrix:
 Charge =  0 Multiplicity = 1

                         Standard orientation:
 ---------------------------------------------------------------------
 Center     Atomic      Atomic             Coordinates (Angstroms)
 Number     Number       Type             X           Y           Z
 ---------------------------------------------------------------------
      1          6           0        1.437016    0.147452   -0.008306
      2          6           0        0.556188    1.243063   -0.023964
      3          6           0       -0.823575    1.103920    0.014355
      4          6           0       -1.398133   -0.142950    0.076240
      5          6           0       -0.585682   -1.256357   -0.052966
      6          6           0        0.840555   -1.103859    0.003083
      7          1           0        2.572965    0.156716    0.209840
      8          1           0        1.371260   -2.126745    0.057091
      9          1           0       -1.136394   -2.059351   -0.121588
     10          1           0       -2.605739   -0.267557   -0.024522
     11          1           0       -1.325958    2.066630   -0.002497
     12          1           0        0.965656    2.282697   -0.168973
 ---------------------------------------------------------------------

 SCF Done:  E(RB3LYP) =  -232.215134226     A.U. after   13 cycles

 Excitation energies and oscillator strengths:

 Excited State   1:      Singlet-A      5.4681 eV  226.74 nm  f=0.0016  <S**2>=0.000
      20 -> 22         0.40627
      20 -> 23        -0.22929
      21 -> 22         0.28965
      21 -> 23         0.44501
 This state for optimization and/or second-order correction.
 Total Energy, E(TD-HF/TD-DFT) =  -232.014186151
 Copying the excited state density for this state as the 1-particle RhoCI density.

 The electronic state is 1-A.
 Alpha  occ. eigenvalues --  -10.19984 -10.19925 -10.19695 -10.19334 -10.18607
 Alpha  occ. eigenvalues --  -10.17911  -0.85024  -0.74492  -0.73883  -0.60198
 Alpha  occ. eigenvalues --   -0.59103  -0.51555  -0.45745  -0.43094  -0.41465
 Alpha  occ. eigenvalues --   -0.40886  -0.36393  -0.33837  -0.32874  -0.25336
 Alpha  occ. eigenvalues --   -0.24340
 Alpha virt. eigenvalues --   -0.00311   0.00140   0.07594   0.11729   0.14000
 Alpha virt. eigenvalues --    0.15115   0.16369   0.18244   0.19322   0.28954
 Alpha virt. eigenvalues --    0.29735   0.31616   0.33048   0.45464   0.50950

 Mulliken charges:
               1
     1  C   -0.086477
     2  C   -0.101853
     3  C   -0.061682
     4  C   -0.100676
     5  C   -0.052746
     6  C   -0.094054
     7  H    0.095110
     8  H    0.083916
     9  H    0.075436
    10  H    0.074361
    11  H    0.085903
    12  H    0.082761
 Sum of Mulliken charges =  -0.00000

 Dipole moment (field-independent basis, Debye):
    X=             -0.0458    Y=             -0.0255    Z=             -0.0283  Tot=              0.0596
 Quadrupole moment (field-independent basis, Debye-Ang):
   XX=            -31.8738   YY=            -31.7553   ZZ=            -38.6151
   XY=              0.1505   XZ=              0.5898   YZ=             -0.1543

 Normal termination of Gaussian 16 at Fri Nov 10 20:03:44 2023.
