 Gaussian 16, Revision B.01,
 Gaussian 16:  EM64L-G16RevB.01 20-Dec-2017

 ---------------------------------
 # TD=(NStates=1) B3LYP/6-31G(d,p)
 ---------------------------------

 -------
 EMISPCT
 -------
 Symbolic Z-matrix:
 Charge =  0 Multiplicity = 1

                         Standard orientation:
 ---------------------------------------------------------------------
 Center     Atomic      Atomic             Coordinates (Angstroms)
 Number     Number       Type             X           Y           Z
 ---------------------------------------------------------------------
      1          6           0        1.380027    0.338596    0.026341
      2          6           0        0.326536    1.384129    0.048906
      3          6           0       -1.034594    1.001633    0.008639
      4          6           0       -1.340770   -0.395792   -0.073198
      5          6           0       -0.404685   -1.362359    0.043429
      6          6           0        1.018835   -1.010000   -0.081212
      7          1           0        2.551523    0.792781   -0.209585
      8          1           0        1.896681   -1.679291    0.131475
      9          1           0       -0.715849   -2.292092    0.237761
     10          1           0       -2.322110   -0.641385   -0.021886
     11          1           0       -1.635419    1.755318   -0.065714
     12          1           0        0.553081    2.327436    0.090514
 ---------------------------------------------------------------------

 SCF Done:  E(RB3LYP) =  -232.181028335     A.U. after   13 cycles

 Excitation energies and oscillator strengths:

 Excited State   1:      Singlet-A      5.1879 eV  238.99 nm  f=0.0004  <S**2>=0.000
      20 -> 22         0.47430
      20 -> 23         0.15687
      21 -> 22         0.18326
      21 -> 23        -0.46519
 This state for optimization and/or second-order correction.
 Total Energy, E(TD-HF/TD-DFT) =  -231.990377869
 Copying the excited state density for this state as the 1-particle RhoCI density.

 The electronic state is 1-A.
 Alpha  occ. eigenvalues --  -10.21173 -10.20073 -10.18689 -10.18421 -10.18208
 Alpha  occ. eigenvalues --  -10.18130  -0.83762  -0.74382  -0.73628  -0.61088
 Alpha  occ. eigenvalues --   -0.59246  -0.51982  -0.47628  -0.43375  -0.42373
 Alpha  occ. eigenvalues --   -0.40498  -0.35579  -0.34626  -0.32450  -0.24593
 Alpha  occ. eigenvalues --   -0.24182
 Alpha virt. eigenvalues --   -0.01102  -0.00437   0.08241   0.13298   0.14052
 Alpha virt. eigenvalues --    0.15705   0.17140   0.18916   0.20904   0.27874
 Alpha virt. eigenvalues --    0.28785   0.30105   0.31558   0.46958   0.47703

 Mulliken charges:
               1
     1  C   -0.087690
     2  C   -0.070166
     3  C   -0.060400
     4  C   -0.076744
     5  C   -0.073449
     6  C   -0.106499
     7  H    0.068445
     8  H    0.093478
     9  H    0.085316
    10  H    0.079727
    11  H    0.074445
    12  H    0.073537
 Sum of Mulliken charges =  -0.00000

 Dipole moment (field-independent basis, Debye):
    X=             -0.2897    Y=              0.1541    Z=              0.1390  Tot=              0.3563
 Quadrupole moment (field-independent basis, Debye-Ang):
   XX=            -31.8037   YY=            -31.2022   ZZ=            -38.4982
   XY=              0.1187   XZ=             -0.1332   YZ=             -0.7386

 Normal termination of Gaussian 16 at Fri Nov 10 19:57:51 2023.
