 Gaussian 16, Revision B.01,
 Gaussian 16:  EM64L-G16RevB.01 20-Dec-2017

 ---------------------------------
 # TD=(NStates=1) B3LYP/6-31G(d,p)
 ---------------------------------

 -------
 EMISPCT
 -------
 Symbolic Z-matrix:
 Charge =  0 Multiplicity = 1

                         Standard orientation:
 ---------------------------------------------------------------------
 Center     Atomic      Atomic             Coordinates (Angstroms)
 Number     Number       Type             X           Y           Z
 ---------------------------------------------------------------------
      1          6           0        0.660897    1.296078   -0.008412
      2          6           0       -0.772618    1.169063   -0.048207
      3          6           0       -1.525475   -0.121395    0.033910
      4          6           0       -0.600379   -1.250800   -0.059933
      5          6           0        0.772284   -1.149560    0.050961
      6          6           0        1.477291    0.066478    0.027093
      7          1           0        1.003938    2.396921   -0.075383
      8          1           0        2.605312    0.150499   -0.009699
      9          1           0        1.413357   -2.169553    0.043619
     10          1           0       -0.991198   -2.207483   -0.260189
     11          1           0       -2.539023   -0.256611    0.282737
     12          1           0       -1.564382    2.027042    0.046439
 ---------------------------------------------------------------------

 SCF Done:  E(RB3LYP) =  -232.203320124     A.U. after   13 cycles

 Excitation energies and oscillator strengths:

 Excited State   1:      Singlet-A      4.9783 eV  249.05 nm  f=0.0039  <S**2>=0.000
      20 -> 22         0.54538
      21 -> 23         0.43555
 This state for optimization and/or second-order correction.
 Total Energy, E(TD-HF/TD-DFT) =  -232.020372322
 Copying the excited state density for this state as the 1-particle RhoCI density.

 The electronic state is 1-A.
 Alpha  occ. eigenvalues --  -10.21262 -10.21041 -10.21031 -10.20351 -10.20241
 Alpha  occ. eigenvalues --  -10.19158  -0.82872  -0.72974  -0.72744  -0.60320
 Alpha  occ. eigenvalues --   -0.57659  -0.50118  -0.46794  -0.42978  -0.41454
 Alpha  occ. eigenvalues --   -0.39283  -0.35941  -0.34554  -0.31368  -0.24434
 Alpha  occ. eigenvalues --   -0.23693
 Alpha virt. eigenvalues --   -0.02222  -0.00017   0.07507   0.12152   0.12800
 Alpha virt. eigenvalues --    0.14260   0.14882   0.16262   0.18313   0.25848
 Alpha virt. eigenvalues --    0.28057   0.29057   0.31115   0.46301   0.48027

 Mulliken charges:
               1
     1  C   -0.095997
     2  C   -0.101288
     3  C   -0.094827
     4  C   -0.083373
     5  C   -0.072674
     6  C   -0.099026
     7  H    0.097627
     8  H    0.100158
     9  H    0.078139
    10  H    0.084911
    11  H    0.106076
    12  H    0.080274
 Sum of Mulliken charges =  -0.00000

 Dipole moment (field-independent basis, Debye):
    X=             -0.1014    Y=             -0.0982    Z=              0.0345  Tot=              0.1453
 Quadrupole moment (field-independent basis, Debye-Ang):
   XX=            -30.8069   YY=            -32.2324   ZZ=            -39.2017
   XY=              0.2119   XZ=             -0.5824   YZ=              0.2420

 Normal termination of Gaussian 16 at Fri Nov 10 22:17:13 2023.
