 Gaussian 16, Revision B.01,
 Gaussian 16:  EM64L-G16RevB.01 20-Dec-2017

 ---------------------------------
 # TD=(NStates=1) B3LYP/6-31G(d,p)
 ---------------------------------

 -------
 EMISPCT
 -------
 Symbolic Z-matrix:
 Charge =  0 Multiplicity = 1

                         Standard orientation:
 ---------------------------------------------------------------------
 Center     Atomic      Atomic             Coordinates (Angstroms)
 Number     Number       Type             X           Y           Z
 ---------------------------------------------------------------------
      1          6           0       -0.323769    1.333123    0.048248
      2          6           0        1.035797    0.965258    0.091902
      3          6           0        1.397188   -0.376718   -0.063081
      4          6           0        0.356503   -1.388278    0.001316
      5          6           0       -1.059547   -0.965768    0.031813
      6          6           0       -1.417160    0.389935   -0.057426
      7          1           0       -0.559863    2.463765   -0.065353
      8          1           0       -2.368485    0.756370    0.020558
      9          1           0       -1.795696   -1.691908   -0.179714
     10          1           0        0.602109   -2.317464    0.256725
     11          1           0        2.400887   -0.721593   -0.129125
     12          1           0        1.786976    1.765518   -0.219724
 ---------------------------------------------------------------------

 SCF Done:  E(RB3LYP) =  -232.214849057     A.U. after   12 cycles

 Excitation energies and oscillator strengths:

 Excited State   1:      Singlet-A      5.0306 eV  246.46 nm  f=0.0017  <S**2>=0.000
      20 -> 22        -0.46165
      21 -> 23         0.52498
 This state for optimization and/or second-order correction.
 Total Energy, E(TD-HF/TD-DFT) =  -232.029978658
 Copying the excited state density for this state as the 1-particle RhoCI density.

 The electronic state is 1-A.
 Alpha  occ. eigenvalues --  -10.20176 -10.19643 -10.19544 -10.19483 -10.19147
 Alpha  occ. eigenvalues --  -10.19120  -0.83331  -0.74243  -0.72818  -0.60119
 Alpha  occ. eigenvalues --   -0.59582  -0.51241  -0.47173  -0.43086  -0.42201
 Alpha  occ. eigenvalues --   -0.40543  -0.35508  -0.34905  -0.32243  -0.25082
 Alpha  occ. eigenvalues --   -0.23506
 Alpha virt. eigenvalues --   -0.01637  -0.00798   0.09323   0.12246   0.15127
 Alpha virt. eigenvalues --    0.15648   0.17306   0.18300   0.19070   0.27128
 Alpha virt. eigenvalues --    0.28435   0.29881   0.30983   0.46873   0.48391

 Mulliken charges:
               1
     1  C   -0.099143
     2  C   -0.084493
     3  C   -0.086691
     4  C   -0.089161
     5  C   -0.103810
     6  C   -0.065855
     7  H    0.079502
     8  H    0.091952
     9  H    0.090880
    10  H    0.089587
    11  H    0.090983
    12  H    0.086249
 Sum of Mulliken charges =  -0.00000

 Dipole moment (field-independent basis, Debye):
    X=             -0.0553    Y=             -0.0954    Z=             -0.1811  Tot=              0.2121
 Quadrupole moment (field-independent basis, Debye-Ang):
   XX=            -31.3400   YY=            -31.8973   ZZ=            -38.6406
   XY=             -0.4562   XZ=             -0.1921   YZ=             -0.6602

 Normal termination of Gaussian 16 at Fri Nov 10 19:44:35 2023.
