 Gaussian 16, Revision B.01,
 Gaussian 16:  EM64L-G16RevB.01 20-Dec-2017

 ---------------------------------
 # TD=(NStates=1) B3LYP/6-31G(d,p)
 ---------------------------------

 -------
 EMISPCT
 -------
 Symbolic Z-matrix:
 Charge =  0 Multiplicity = 1

                         Standard orientation:
 ---------------------------------------------------------------------
 Center     Atomic      Atomic             Coordinates (Angstroms)
 Number     Number       Type             X           Y           Z
 ---------------------------------------------------------------------
      1          6           0       -1.476544    0.161273   -0.180218
      2          6           0       -0.857788   -1.086175    0.138539
      3          6           0        0.517821   -1.346771   -0.076830
      4          6           0        1.468091   -0.189937   -0.040147
      5          6           0        0.878410    1.148103   -0.033432
      6          6           0       -0.577119    1.256612    0.115204
      7          1           0       -2.431041    0.435810   -0.430879
      8          1           0       -0.934850    2.422405    0.284792
      9          1           0        1.633004    1.891570    0.165978
     10          1           0        2.469214   -0.194402   -0.079830
     11          1           0        0.964001   -2.209603    0.070373
     12          1           0       -1.417550   -2.004405    0.450868
 ---------------------------------------------------------------------

 SCF Done:  E(RB3LYP) =  -232.167311262     A.U. after   14 cycles

 Excitation energies and oscillator strengths:

 Excited State   1:      Singlet-A      4.5434 eV  272.89 nm  f=0.0043  <S**2>=0.000
      20 -> 22         0.44011
      20 -> 23        -0.25293
      21 -> 22        -0.38742
      21 -> 23        -0.30238
 This state for optimization and/or second-order correction.
 Total Energy, E(TD-HF/TD-DFT) =  -232.000344765
 Copying the excited state density for this state as the 1-particle RhoCI density.

 The electronic state is 1-A.
 Alpha  occ. eigenvalues --  -10.21576 -10.20599 -10.20257 -10.19471 -10.19335
 Alpha  occ. eigenvalues --  -10.18870  -0.82733  -0.73623  -0.72588  -0.60231
 Alpha  occ. eigenvalues --   -0.58980  -0.51334  -0.47655  -0.43217  -0.42016
 Alpha  occ. eigenvalues --   -0.39976  -0.36609  -0.32954  -0.32312  -0.23313
 Alpha  occ. eigenvalues --   -0.23201
 Alpha virt. eigenvalues --   -0.02666  -0.00794   0.08593   0.10921   0.13886
 Alpha virt. eigenvalues --    0.14544   0.16447   0.18029   0.20092   0.26720
 Alpha virt. eigenvalues --    0.27920   0.28661   0.31588   0.41637   0.43990

 Mulliken charges:
               1
     1  C   -0.079906
     2  C   -0.097916
     3  C   -0.074756
     4  C   -0.087329
     5  C   -0.087469
     6  C   -0.098710
     7  H    0.105305
     8  H    0.071882
     9  H    0.088790
    10  H    0.085024
    11  H    0.086216
    12  H    0.088868
 Sum of Mulliken charges =  -0.00000

 Dipole moment (field-independent basis, Debye):
    X=              0.0125    Y=             -0.0689    Z=              0.2468  Tot=              0.2566
 Quadrupole moment (field-independent basis, Debye-Ang):
   XX=            -30.8396   YY=            -32.4086   ZZ=            -38.6610
   XY=             -0.1158   XZ=              0.4930   YZ=             -0.2850

 Normal termination of Gaussian 16 at Fri Nov 10 22:50:47 2023.
