 Gaussian 16, Revision B.01,
 Gaussian 16:  EM64L-G16RevB.01 20-Dec-2017

 ---------------------------------
 # TD=(NStates=1) B3LYP/6-31G(d,p)
 ---------------------------------

 -------
 EMISPCT
 -------
 Symbolic Z-matrix:
 Charge =  0 Multiplicity = 1

                         Standard orientation:
 ---------------------------------------------------------------------
 Center     Atomic      Atomic             Coordinates (Angstroms)
 Number     Number       Type             X           Y           Z
 ---------------------------------------------------------------------
      1          6           0        0.094501    1.484950    0.114440
      2          6           0       -1.258183    0.742925   -0.016383
      3          6           0       -1.314389   -0.680824   -0.101962
      4          6           0       -0.038511   -1.422346    0.130330
      5          6           0        1.207895   -0.751119   -0.083909
      6          6           0        1.312068    0.610926    0.035356
      7          1           0        0.133078    2.526008    0.043538
      8          1           0        2.200174    1.273136   -0.235895
      9          1           0        2.168588   -1.378345   -0.421208
     10          1           0        0.045734   -2.475035    0.484193
     11          1           0       -2.285376   -1.255545   -0.196925
     12          1           0       -2.282483    1.402709   -0.140930
 ---------------------------------------------------------------------

 SCF Done:  E(RB3LYP) =  -232.180371729     A.U. after   14 cycles

 Excitation energies and oscillator strengths:

 Excited State   1:      Singlet-A      4.6747 eV  265.23 nm  f=0.0063  <S**2>=0.000
      20 -> 22         0.51076
      21 -> 22         0.22188
      21 -> 23         0.42849
 This state for optimization and/or second-order correction.
 Total Energy, E(TD-HF/TD-DFT) =  -232.008580648
 Copying the excited state density for this state as the 1-particle RhoCI density.

 The electronic state is 1-A.
 Alpha  occ. eigenvalues --  -10.22108 -10.21350 -10.21033 -10.20976 -10.20502
 Alpha  occ. eigenvalues --  -10.20429  -0.82176  -0.73119  -0.71610  -0.59936
 Alpha  occ. eigenvalues --   -0.57228  -0.49446  -0.46518  -0.42497  -0.40912
 Alpha  occ. eigenvalues --   -0.39641  -0.36868  -0.32903  -0.31844  -0.24830
 Alpha  occ. eigenvalues --   -0.22365
 Alpha virt. eigenvalues --   -0.03430  -0.00036   0.07475   0.10399   0.11724
 Alpha virt. eigenvalues --    0.14354   0.14787   0.15325   0.17418   0.24642
 Alpha virt. eigenvalues --    0.26173   0.29271   0.31414   0.44674   0.47440

 Mulliken charges:
               1
     1  C   -0.103725
     2  C   -0.096306
     3  C   -0.089488
     4  C   -0.105771
     5  C   -0.084080
     6  C   -0.083772
     7  H    0.100381
     8  H    0.090887
     9  H    0.088736
    10  H    0.101291
    11  H    0.101055
    12  H    0.080792
 Sum of Mulliken charges =  -0.00000

 Dipole moment (field-independent basis, Debye):
    X=             -0.0258    Y=             -0.0422    Z=             -0.2660  Tot=              0.2706
 Quadrupole moment (field-independent basis, Debye-Ang):
   XX=            -32.1502   YY=            -31.1574   ZZ=            -39.1921
   XY=              0.2582   XZ=             -0.4420   YZ=             -0.6949

 Normal termination of Gaussian 16 at Fri Nov 10 21:39:02 2023.
