 Gaussian 16, Revision B.01,
 Gaussian 16:  EM64L-G16RevB.01 20-Dec-2017

 ---------------------------------
 # TD=(NStates=1) B3LYP/6-31G(d,p)
 ---------------------------------

 -------
 EMISPCT
 -------
 Symbolic Z-matrix:
 Charge =  0 Multiplicity = 1

                         Standard orientation:
 ---------------------------------------------------------------------
 Center     Atomic      Atomic             Coordinates (Angstroms)
 Number     Number       Type             X           Y           Z
 ---------------------------------------------------------------------
      1          6           0        0.233149   -1.444590    0.039485
      2          6           0        1.406913   -0.502965   -0.003248
      3          6           0        1.075439    0.901256   -0.040562
      4          6           0       -0.255744    1.382739    0.032572
      5          6           0       -1.292474    0.454984   -0.085762
      6          6           0       -1.142090   -0.882210    0.009603
      7          1           0        0.278516   -2.472351   -0.167905
      8          1           0       -1.991932   -1.531116    0.337867
      9          1           0       -2.414819    1.045185   -0.182901
     10          1           0       -0.305816    2.584991    0.258013
     11          1           0        1.773123    1.757930    0.087962
     12          1           0        2.509770   -0.839925   -0.045557
 ---------------------------------------------------------------------

 SCF Done:  E(RB3LYP) =  -232.185679467     A.U. after   13 cycles

 Excitation energies and oscillator strengths:

 Excited State   1:      Singlet-A      5.0001 eV  247.96 nm  f=0.0000  <S**2>=0.000
      20 -> 22         0.49164
      21 -> 23         0.50679
 This state for optimization and/or second-order correction.
 Total Energy, E(TD-HF/TD-DFT) =  -232.001927856
 Copying the excited state density for this state as the 1-particle RhoCI density.

 The electronic state is 1-A.
 Alpha  occ. eigenvalues --  -10.21750 -10.20827 -10.20614 -10.20536 -10.20153
 Alpha  occ. eigenvalues --  -10.19878  -0.83556  -0.73733  -0.72476  -0.59600
 Alpha  occ. eigenvalues --   -0.58686  -0.49731  -0.45012  -0.43800  -0.40584
 Alpha  occ. eigenvalues --   -0.40061  -0.35771  -0.34789  -0.31327  -0.24905
 Alpha  occ. eigenvalues --   -0.23578
 Alpha virt. eigenvalues --   -0.01976  -0.00607   0.05759   0.11212   0.12401
 Alpha virt. eigenvalues --    0.13260   0.15448   0.16517   0.17795   0.25770
 Alpha virt. eigenvalues --    0.28089   0.29426   0.32527   0.46447   0.47470

 Mulliken charges:
               1
     1  C   -0.115366
     2  C   -0.098732
     3  C   -0.080070
     4  C   -0.078493
     5  C   -0.066555
     6  C   -0.099973
     7  H    0.100828
     8  H    0.104478
     9  H    0.060509
    10  H    0.090828
    11  H    0.084092
    12  H    0.098454
 Sum of Mulliken charges =  -0.00000

 Dipole moment (field-independent basis, Debye):
    X=              0.1000    Y=              0.0222    Z=              0.1787  Tot=              0.2060
 Quadrupole moment (field-independent basis, Debye-Ang):
   XX=            -32.5241   YY=            -31.2271   ZZ=            -39.1110
   XY=              0.4413   XZ=             -0.3848   YZ=              0.4899

 Normal termination of Gaussian 16 at Fri Nov 10 20:06:10 2023.
