 Gaussian 16, Revision B.01,
 Gaussian 16:  EM64L-G16RevB.01 20-Dec-2017

 ---------------------------------
 # TD=(NStates=1) B3LYP/6-31G(d,p)
 ---------------------------------

 -------
 EMISPCT
 -------
 Symbolic Z-matrix:
 Charge =  0 Multiplicity = 1

                         Standard orientation:
 ---------------------------------------------------------------------
 Center     Atomic      Atomic             Coordinates (Angstroms)
 Number     Number       Type             X           Y           Z
 ---------------------------------------------------------------------
      1          6           0       -0.057033   -1.411070    0.079922
      2          6           0        1.159767   -0.756941   -0.000843
      3          6           0        1.341281    0.698910    0.021413
      4          6           0        0.027601    1.413745    0.044643
      5          6           0       -1.222196    0.682861   -0.073898
      6          6           0       -1.284182   -0.627217   -0.052177
      7          1           0        0.020983   -2.548800   -0.038001
      8          1           0       -2.304221   -1.050897    0.329163
      9          1           0       -2.037202    1.363053   -0.260559
     10          1           0        0.030025    2.588845    0.248707
     11          1           0        2.344891    1.016206   -0.112420
     12          1           0        2.154087   -1.370139   -0.281254
 ---------------------------------------------------------------------

 SCF Done:  E(RB3LYP) =  -232.190076763     A.U. after   13 cycles

 Excitation energies and oscillator strengths:

 Excited State   1:      Singlet-A      5.0324 eV  246.37 nm  f=0.0030  <S**2>=0.000
      20 -> 22         0.49351
      21 -> 22        -0.17344
      21 -> 23         0.46645
 This state for optimization and/or second-order correction.
 Total Energy, E(TD-HF/TD-DFT) =  -232.005138698
 Copying the excited state density for this state as the 1-particle RhoCI density.

 The electronic state is 1-A.
 Alpha  occ. eigenvalues --  -10.21754 -10.20687 -10.20281 -10.20079 -10.19941
 Alpha  occ. eigenvalues --  -10.19149  -0.83829  -0.74407  -0.72168  -0.60458
 Alpha  occ. eigenvalues --   -0.57470  -0.50520  -0.45348  -0.43277  -0.41584
 Alpha  occ. eigenvalues --   -0.40040  -0.36387  -0.33762  -0.31414  -0.25229
 Alpha  occ. eigenvalues --   -0.23526
 Alpha virt. eigenvalues --   -0.02418  -0.00140   0.07345   0.11025   0.12992
 Alpha virt. eigenvalues --    0.14400   0.15143   0.16587   0.18013   0.25955
 Alpha virt. eigenvalues --    0.27485   0.29755   0.32181   0.45904   0.48153

 Mulliken charges:
               1
     1  C   -0.095786
     2  C   -0.086547
     3  C   -0.083896
     4  C   -0.114594
     5  C   -0.052234
     6  C   -0.106266
     7  H    0.092203
     8  H    0.091328
     9  H    0.096716
    10  H    0.084247
    11  H    0.102965
    12  H    0.071864
 Sum of Mulliken charges =  -0.00000

 Dipole moment (field-independent basis, Debye):
    X=              0.0548    Y=              0.2053    Z=             -0.0783  Tot=              0.2265
 Quadrupole moment (field-independent basis, Debye-Ang):
   XX=            -31.4942   YY=            -32.3734   ZZ=            -38.8929
   XY=             -0.3387   XZ=             -0.8854   YZ=              0.1836

 Normal termination of Gaussian 16 at Fri Nov 10 20:59:02 2023.
