 Gaussian 16, Revision B.01,
 Gaussian 16:  EM64L-G16RevB.01 20-Dec-2017

 ---------------------------------
 # TD=(NStates=1) B3LYP/6-31G(d,p)
 ---------------------------------

 -------
 EMISPCT
 -------
 Symbolic Z-matrix:
 Charge =  0 Multiplicity = 1

                         Standard orientation:
 ---------------------------------------------------------------------
 Center     Atomic      Atomic             Coordinates (Angstroms)
 Number     Number       Type             X           Y           Z
 ---------------------------------------------------------------------
      1          6           0        1.426592   -0.478163   -0.020975
      2          6           0        1.125542    0.920355    0.113383
      3          6           0       -0.248547    1.367597   -0.059750
      4          6           0       -1.406536    0.458630   -0.008398
      5          6           0       -1.080574   -0.972890    0.042516
      6          6           0        0.242262   -1.344177   -0.091873
      7          1           0        2.403958   -0.901788    0.018141
      8          1           0        0.374263   -2.293109    0.096872
      9          1           0       -1.882003   -1.577157    0.091483
     10          1           0       -2.474409    0.882440    0.105927
     11          1           0       -0.554323    2.471039   -0.130886
     12          1           0        1.780079    1.710463   -0.030951
 ---------------------------------------------------------------------

 SCF Done:  E(RB3LYP) =  -232.198813098     A.U. after   14 cycles

 Excitation energies and oscillator strengths:

 Excited State   1:      Singlet-A      4.9785 eV  249.04 nm  f=0.0030  <S**2>=0.000
      20 -> 22         0.42842
      20 -> 23        -0.20219
      21 -> 22         0.29597
      21 -> 23         0.43319
 This state for optimization and/or second-order correction.
 Total Energy, E(TD-HF/TD-DFT) =  -232.015858210
 Copying the excited state density for this state as the 1-particle RhoCI density.

 The electronic state is 1-A.
 Alpha  occ. eigenvalues --  -10.20663 -10.20502 -10.20472 -10.19701 -10.18873
 Alpha  occ. eigenvalues --  -10.18194  -0.82758  -0.74021  -0.72430  -0.60205
 Alpha  occ. eigenvalues --   -0.59412  -0.51249  -0.47314  -0.43091  -0.42320
 Alpha  occ. eigenvalues --   -0.40091  -0.35167  -0.34319  -0.32553  -0.24708
 Alpha  occ. eigenvalues --   -0.23452
 Alpha virt. eigenvalues --   -0.01806  -0.00597   0.09487   0.12715   0.14304
 Alpha virt. eigenvalues --    0.14796   0.17304   0.17946   0.19576   0.27054
 Alpha virt. eigenvalues --    0.27817   0.28042   0.30831   0.46972   0.48220

 Mulliken charges:
               1
     1  C   -0.098272
     2  C   -0.083912
     3  C   -0.101152
     4  C   -0.101101
     5  C   -0.070332
     6  C   -0.079390
     7  H    0.100548
     8  H    0.078675
     9  H    0.087239
    10  H    0.091165
    11  H    0.083573
    12  H    0.092960
 Sum of Mulliken charges =  -0.00000

 Dipole moment (field-independent basis, Debye):
    X=             -0.0793    Y=             -0.0797    Z=              0.1152  Tot=              0.1610
 Quadrupole moment (field-independent basis, Debye-Ang):
   XX=            -30.7879   YY=            -31.7781   ZZ=            -38.9069
   XY=             -0.1936   XZ=             -0.3003   YZ=             -0.5778

 Normal termination of Gaussian 16 at Fri Nov 10 20:23:00 2023.
