 Gaussian 16, Revision B.01,
 Gaussian 16:  EM64L-G16RevB.01 20-Dec-2017

 ---------------------------------
 # TD=(NStates=1) B3LYP/6-31G(d,p)
 ---------------------------------

 -------
 EMISPCT
 -------
 Symbolic Z-matrix:
 Charge =  0 Multiplicity = 1

                         Standard orientation:
 ---------------------------------------------------------------------
 Center     Atomic      Atomic             Coordinates (Angstroms)
 Number     Number       Type             X           Y           Z
 ---------------------------------------------------------------------
      1          6           0        1.415463   -0.012853    0.054739
      2          6           0        0.710875    1.218333   -0.019997
      3          6           0       -0.690300    1.232373   -0.045525
      4          6           0       -1.423990   -0.015553    0.113226
      5          6           0       -0.721989   -1.243865   -0.115028
      6          6           0        0.759328   -1.205336    0.006067
      7          1           0        2.426111    0.031536    0.298507
      8          1           0        1.161847   -2.039953    0.105949
      9          1           0       -1.284549   -2.074357   -0.382085
     10          1           0       -2.552109    0.090450    0.474427
     11          1           0       -1.248420    2.098960   -0.120685
     12          1           0        1.200796    2.054780   -0.337002
 ---------------------------------------------------------------------

 SCF Done:  E(RB3LYP) =  -232.190499538     A.U. after   13 cycles

 Excitation energies and oscillator strengths:

 Excited State   1:      Singlet-A      4.9652 eV  249.71 nm  f=0.0012  <S**2>=0.000
      20 -> 22         0.53885
      21 -> 23        -0.44798
 This state for optimization and/or second-order correction.
 Total Energy, E(TD-HF/TD-DFT) =  -232.008032399
 Copying the excited state density for this state as the 1-particle RhoCI density.

 The electronic state is 1-A.
 Alpha  occ. eigenvalues --  -10.20578 -10.19700 -10.18674 -10.18159 -10.18084
 Alpha  occ. eigenvalues --  -10.17913  -0.83532  -0.74094  -0.73358  -0.60991
 Alpha  occ. eigenvalues --   -0.59458  -0.51787  -0.48177  -0.43003  -0.42347
 Alpha  occ. eigenvalues --   -0.41321  -0.36820  -0.34502  -0.31902  -0.24066
 Alpha  occ. eigenvalues --   -0.23487
 Alpha virt. eigenvalues --   -0.01596  -0.00122   0.10213   0.12426   0.14848
 Alpha virt. eigenvalues --    0.16640   0.17748   0.18902   0.19953   0.28160
 Alpha virt. eigenvalues --    0.28728   0.30205   0.32625   0.47676   0.48861

 Mulliken charges:
               1
     1  C   -0.085403
     2  C   -0.086587
     3  C   -0.081762
     4  C   -0.098024
     5  C   -0.107543
     6  C   -0.048138
     7  H    0.085153
     8  H    0.066947
     9  H    0.095857
    10  H    0.086647
    11  H    0.086352
    12  H    0.086501
 Sum of Mulliken charges =  -0.00000

 Dipole moment (field-independent basis, Debye):
    X=             -0.0719    Y=             -0.0774    Z=             -0.0121  Tot=              0.1063
 Quadrupole moment (field-independent basis, Debye-Ang):
   XX=            -31.5547   YY=            -31.5059   ZZ=            -38.0898
   XY=             -0.1818   XZ=              0.0065   YZ=             -0.2497

 Normal termination of Gaussian 16 at Fri Nov 10 20:16:32 2023.
