 Gaussian 16, Revision B.01,
 Gaussian 16:  EM64L-G16RevB.01 20-Dec-2017

 ---------------------------------
 # TD=(NStates=1) B3LYP/6-31G(d,p)
 ---------------------------------

 -------
 EMISPCT
 -------
 Symbolic Z-matrix:
 Charge =  0 Multiplicity = 1

                         Standard orientation:
 ---------------------------------------------------------------------
 Center     Atomic      Atomic             Coordinates (Angstroms)
 Number     Number       Type             X           Y           Z
 ---------------------------------------------------------------------
      1          6           0        0.625404   -1.277783    0.034965
      2          6           0        1.414177   -0.143581   -0.006653
      3          6           0        0.891749    1.129551   -0.040326
      4          6           0       -0.596501    1.281627    0.052544
      5          6           0       -1.418310    0.087154   -0.082163
      6          6           0       -0.882359   -1.135321   -0.072820
      7          1           0        1.084375   -2.269489    0.047017
      8          1           0       -1.566516   -1.859231    0.253251
      9          1           0       -2.534963    0.355508    0.152722
     10          1           0       -1.181916    2.343912    0.188638
     11          1           0        1.543875    2.043965   -0.098965
     12          1           0        2.450179   -0.264546    0.144062
 ---------------------------------------------------------------------

 SCF Done:  E(RB3LYP) =  -232.202023212     A.U. after   14 cycles

 Excitation energies and oscillator strengths:

 Excited State   1:      Singlet-A      5.1659 eV  240.01 nm  f=0.0011  <S**2>=0.000
      20 -> 22         0.49300
      21 -> 23         0.49735
 This state for optimization and/or second-order correction.
 Total Energy, E(TD-HF/TD-DFT) =  -232.012181673
 Copying the excited state density for this state as the 1-particle RhoCI density.

 The electronic state is 1-A.
 Alpha  occ. eigenvalues --  -10.21507 -10.20433 -10.20163 -10.19682 -10.19147
 Alpha  occ. eigenvalues --  -10.18725  -0.83680  -0.75356  -0.71600  -0.60700
 Alpha  occ. eigenvalues --   -0.57685  -0.50739  -0.45557  -0.43436  -0.42101
 Alpha  occ. eigenvalues --   -0.39859  -0.35546  -0.34538  -0.32211  -0.25968
 Alpha  occ. eigenvalues --   -0.22890
 Alpha virt. eigenvalues --   -0.02452   0.00719   0.07425   0.12214   0.13590
 Alpha virt. eigenvalues --    0.13907   0.15696   0.18119   0.18548   0.25929
 Alpha virt. eigenvalues --    0.27989   0.29865   0.32437   0.47083   0.49522

 Mulliken charges:
               1
     1  C   -0.107076
     2  C   -0.058922
     3  C   -0.098952
     4  C   -0.098925
     5  C   -0.077008
     6  C   -0.095551
     7  H    0.092318
     8  H    0.096363
     9  H    0.083092
    10  H    0.082621
    11  H    0.092726
    12  H    0.089313
 Sum of Mulliken charges =  -0.00000

 Dipole moment (field-independent basis, Debye):
    X=              0.1297    Y=              0.0334    Z=              0.4150  Tot=              0.4361
 Quadrupole moment (field-independent basis, Debye-Ang):
   XX=            -31.2941   YY=            -32.1108   ZZ=            -38.8731
   XY=             -0.2588   XZ=             -0.6413   YZ=             -0.3174

 Normal termination of Gaussian 16 at Fri Nov 10 21:17:53 2023.
