 Gaussian 16, Revision B.01,
 Gaussian 16:  EM64L-G16RevB.01 20-Dec-2017

 ---------------------------------
 # TD=(NStates=1) B3LYP/6-31G(d,p)
 ---------------------------------

 -------
 EMISPCT
 -------
 Symbolic Z-matrix:
 Charge =  0 Multiplicity = 1

                         Standard orientation:
 ---------------------------------------------------------------------
 Center     Atomic      Atomic             Coordinates (Angstroms)
 Number     Number       Type             X           Y           Z
 ---------------------------------------------------------------------
      1          6           0       -0.433204    1.398383    0.013714
      2          6           0       -1.474817    0.305981   -0.036513
      3          6           0       -0.923263   -1.060178   -0.009578
      4          6           0        0.439158   -1.353510   -0.054140
      5          6           0        1.412822   -0.287578    0.005877
      6          6           0        0.959725    1.004465   -0.004328
      7          1           0       -0.670297    2.398117   -0.260531
      8          1           0        1.769215    1.749138    0.228176
      9          1           0        2.439699   -0.428376    0.082019
     10          1           0        0.771155   -2.305201   -0.001705
     11          1           0       -1.647106   -1.880039    0.195549
     12          1           0       -2.545191    0.420985    0.266297
 ---------------------------------------------------------------------

 SCF Done:  E(RB3LYP) =  -232.215201155     A.U. after   13 cycles

 Excitation energies and oscillator strengths:

 Excited State   1:      Singlet-A      4.9850 eV  248.71 nm  f=0.0034  <S**2>=0.000
      20 -> 22         0.55023
      21 -> 23        -0.44357
 This state for optimization and/or second-order correction.
 Total Energy, E(TD-HF/TD-DFT) =  -232.032004770
 Copying the excited state density for this state as the 1-particle RhoCI density.

 The electronic state is 1-A.
 Alpha  occ. eigenvalues --  -10.21128 -10.20522 -10.19853 -10.19317 -10.18853
 Alpha  occ. eigenvalues --  -10.18726  -0.83067  -0.73654  -0.72840  -0.60864
 Alpha  occ. eigenvalues --   -0.58267  -0.51140  -0.47230  -0.42829  -0.41693
 Alpha  occ. eigenvalues --   -0.40471  -0.36152  -0.34454  -0.32164  -0.24613
 Alpha  occ. eigenvalues --   -0.23731
 Alpha virt. eigenvalues --   -0.02418  -0.00066   0.09428   0.12719   0.13730
 Alpha virt. eigenvalues --    0.16003   0.16341   0.17844   0.19670   0.27009
 Alpha virt. eigenvalues --    0.27363   0.28946   0.31579   0.47601   0.48187

 Mulliken charges:
               1
     1  C   -0.109092
     2  C   -0.111852
     3  C   -0.093058
     4  C   -0.069143
     5  C   -0.070158
     6  C   -0.086091
     7  H    0.100064
     8  H    0.080974
     9  H    0.088212
    10  H    0.082920
    11  H    0.085435
    12  H    0.101789
 Sum of Mulliken charges =  -0.00000

 Dipole moment (field-independent basis, Debye):
    X=              0.1727    Y=             -0.1630    Z=              0.3086  Tot=              0.3894
 Quadrupole moment (field-independent basis, Debye-Ang):
   XX=            -31.0536   YY=            -32.0058   ZZ=            -38.7308
   XY=             -0.0209   XZ=             -0.2257   YZ=             -0.4803

 Normal termination of Gaussian 16 at Fri Nov 10 21:17:48 2023.
