 Gaussian 16, Revision B.01,
 Gaussian 16:  EM64L-G16RevB.01 20-Dec-2017

 ---------------------------------
 # TD=(NStates=1) B3LYP/6-31G(d,p)
 ---------------------------------

 -------
 EMISPCT
 -------
 Symbolic Z-matrix:
 Charge =  0 Multiplicity = 1

                         Standard orientation:
 ---------------------------------------------------------------------
 Center     Atomic      Atomic             Coordinates (Angstroms)
 Number     Number       Type             X           Y           Z
 ---------------------------------------------------------------------
      1          6           0        0.015393    1.467727    0.088271
      2          6           0       -1.267758    0.708935   -0.041495
      3          6           0       -1.264397   -0.755842   -0.071725
      4          6           0        0.033261   -1.437882    0.115246
      5          6           0        1.237998   -0.719941   -0.124159
      6          6           0        1.230707    0.678675   -0.072135
      7          1           0       -0.055639    2.534058    0.157533
      8          1           0        2.190352    1.271742    0.071603
      9          1           0        2.307177   -1.168509    0.230881
     10          1           0       -0.117707   -2.452725    0.131207
     11          1           0       -2.222508   -1.153022    0.053458
     12          1           0       -2.012897    1.318430   -0.008695
 ---------------------------------------------------------------------

 SCF Done:  E(RB3LYP) =  -232.185128658     A.U. after   13 cycles

 Excitation energies and oscillator strengths:

 Excited State   1:      Singlet-A      4.8940 eV  253.34 nm  f=0.0003  <S**2>=0.000
      20 -> 22         0.47090
      20 -> 23        -0.15809
      21 -> 22        -0.18697
      21 -> 23        -0.46682
 This state for optimization and/or second-order correction.
 Total Energy, E(TD-HF/TD-DFT) =  -232.005278937
 Copying the excited state density for this state as the 1-particle RhoCI density.

 The electronic state is 1-A.
 Alpha  occ. eigenvalues --  -10.20758 -10.20319 -10.20118 -10.20079 -10.20070
 Alpha  occ. eigenvalues --  -10.19174  -0.82566  -0.73456  -0.72894  -0.60245
 Alpha  occ. eigenvalues --   -0.59489  -0.50925  -0.47666  -0.42713  -0.41095
 Alpha  occ. eigenvalues --   -0.40936  -0.35123  -0.33764  -0.32410  -0.24382
 Alpha  occ. eigenvalues --   -0.23871
 Alpha virt. eigenvalues --   -0.01921  -0.01342   0.08210   0.11745   0.14270
 Alpha virt. eigenvalues --    0.15193   0.16504   0.17514   0.19922   0.26224
 Alpha virt. eigenvalues --    0.27812   0.28736   0.29252   0.45074   0.47870

 Mulliken charges:
               1
     1  C   -0.093751
     2  C   -0.068970
     3  C   -0.103706
     4  C   -0.085228
     5  C   -0.095031
     6  C   -0.085881
     7  H    0.093221
     8  H    0.086437
     9  H    0.083344
    10  H    0.096794
    11  H    0.096600
    12  H    0.076171
 Sum of Mulliken charges =  -0.00000

 Dipole moment (field-independent basis, Debye):
    X=             -0.3040    Y=              0.2447    Z=              0.4116  Tot=              0.5672
 Quadrupole moment (field-independent basis, Debye-Ang):
   XX=            -31.6649   YY=            -31.3512   ZZ=            -38.9679
   XY=              0.1791   XZ=              0.4702   YZ=             -0.1514

 Normal termination of Gaussian 16 at Fri Nov 10 21:08:23 2023.
