 Gaussian 16, Revision B.01,
 Gaussian 16:  EM64L-G16RevB.01 20-Dec-2017

 ---------------------------------
 # TD=(NStates=1) B3LYP/6-31G(d,p)
 ---------------------------------

 -------
 EMISPCT
 -------
 Symbolic Z-matrix:
 Charge =  0 Multiplicity = 1

                         Standard orientation:
 ---------------------------------------------------------------------
 Center     Atomic      Atomic             Coordinates (Angstroms)
 Number     Number       Type             X           Y           Z
 ---------------------------------------------------------------------
      1          6           0        0.091363    1.414879   -0.025493
      2          6           0        1.257603    0.615949   -0.002119
      3          6           0        1.233684   -0.741646    0.015009
      4          6           0       -0.017820   -1.389734   -0.036532
      5          6           0       -1.321672   -0.706930    0.036120
      6          6           0       -1.248108    0.747197    0.004502
      7          1           0        0.134514    2.479687    0.035924
      8          1           0       -2.053975    1.456940    0.097743
      9          1           0       -2.315509   -1.063807   -0.131438
     10          1           0       -0.137297   -2.334954   -0.014906
     11          1           0        2.132087   -1.323155    0.145662
     12          1           0        2.269882    1.147001   -0.081906
 ---------------------------------------------------------------------

 SCF Done:  E(RB3LYP) =  -232.210560493     A.U. after   13 cycles

 Excitation energies and oscillator strengths:

 Excited State   1:      Singlet-A      5.1261 eV  241.87 nm  f=0.0006  <S**2>=0.000
      20 -> 22        -0.47477
      21 -> 23         0.52183
 This state for optimization and/or second-order correction.
 Total Energy, E(TD-HF/TD-DFT) =  -232.022179505
 Copying the excited state density for this state as the 1-particle RhoCI density.

 The electronic state is 1-A.
 Alpha  occ. eigenvalues --  -10.20155 -10.20048 -10.19459 -10.19340 -10.18964
 Alpha  occ. eigenvalues --  -10.18668  -0.83298  -0.73760  -0.73071  -0.60819
 Alpha  occ. eigenvalues --   -0.59072  -0.51375  -0.47591  -0.42973  -0.42055
 Alpha  occ. eigenvalues --   -0.40848  -0.35416  -0.34317  -0.32675  -0.24739
 Alpha  occ. eigenvalues --   -0.23633
 Alpha virt. eigenvalues --   -0.01087  -0.00494   0.09647   0.13347   0.14895
 Alpha virt. eigenvalues --    0.15056   0.17319   0.17949   0.19160   0.27306
 Alpha virt. eigenvalues --    0.28783   0.29195   0.31092   0.46470   0.48563

 Mulliken charges:
               1
     1  C   -0.088106
     2  C   -0.085148
     3  C   -0.065084
     4  C   -0.082030
     5  C   -0.103382
     6  C   -0.100200
     7  H    0.088160
     8  H    0.088644
     9  H    0.100959
    10  H    0.074303
    11  H    0.093161
    12  H    0.078723
 Sum of Mulliken charges =  -0.00000

 Dipole moment (field-independent basis, Debye):
    X=             -0.0282    Y=              0.0030    Z=              0.0272  Tot=              0.0393
 Quadrupole moment (field-independent basis, Debye-Ang):
   XX=            -31.1068   YY=            -31.4930   ZZ=            -38.7850
   XY=             -0.2536   XZ=              0.2513   YZ=              0.1222

 Normal termination of Gaussian 16 at Fri Nov 10 19:43:49 2023.
