 Gaussian 16, Revision B.01,
 Gaussian 16:  EM64L-G16RevB.01 20-Dec-2017

 ---------------------------------
 # TD=(NStates=1) B3LYP/6-31G(d,p)
 ---------------------------------

 -------
 EMISPCT
 -------
 Symbolic Z-matrix:
 Charge =  0 Multiplicity = 1

                         Standard orientation:
 ---------------------------------------------------------------------
 Center     Atomic      Atomic             Coordinates (Angstroms)
 Number     Number       Type             X           Y           Z
 ---------------------------------------------------------------------
      1          6           0        1.404227    0.134869    0.051524
      2          6           0        0.587632    1.335682   -0.079667
      3          6           0       -0.825601    1.174162    0.024916
      4          6           0       -1.454458   -0.155081    0.014589
      5          6           0       -0.527330   -1.314861   -0.062969
      6          6           0        0.816107   -1.115156   -0.011355
      7          1           0        2.461224    0.130209   -0.004854
      8          1           0        1.356060   -2.101154    0.190879
      9          1           0       -0.928596   -2.097857    0.040637
     10          1           0       -2.449871   -0.431190   -0.024145
     11          1           0       -1.643855    1.945309    0.184510
     12          1           0        1.201579    2.196991   -0.009255
 ---------------------------------------------------------------------

 SCF Done:  E(RB3LYP) =  -232.175183110     A.U. after   13 cycles

 Excitation energies and oscillator strengths:

 Excited State   1:      Singlet-A      5.1472 eV  240.88 nm  f=0.0011  <S**2>=0.000
      20 -> 22         0.50714
      21 -> 22         0.13109
      21 -> 23         0.46663
 This state for optimization and/or second-order correction.
 Total Energy, E(TD-HF/TD-DFT) =  -231.986027681
 Copying the excited state density for this state as the 1-particle RhoCI density.

 The electronic state is 1-A.
 Alpha  occ. eigenvalues --  -10.20968 -10.20245 -10.19603 -10.19102 -10.18574
 Alpha  occ. eigenvalues --  -10.16843  -0.83525  -0.74403  -0.73187  -0.61273
 Alpha  occ. eigenvalues --   -0.59654  -0.51458  -0.48200  -0.44304  -0.40739
 Alpha  occ. eigenvalues --   -0.40567  -0.36542  -0.34825  -0.31303  -0.24901
 Alpha  occ. eigenvalues --   -0.23698
 Alpha virt. eigenvalues --   -0.01694   0.00071   0.09856   0.12769   0.14630
 Alpha virt. eigenvalues --    0.15269   0.15931   0.18196   0.22113   0.26560
 Alpha virt. eigenvalues --    0.27750   0.30832   0.32054   0.46963   0.48810

 Mulliken charges:
               1
     1  C   -0.100765
     2  C   -0.089419
     3  C   -0.101289
     4  C   -0.100921
     5  C   -0.019866
     6  C   -0.075667
     7  H    0.091007
     8  H    0.074573
     9  H    0.043489
    10  H    0.091601
    11  H    0.089846
    12  H    0.097409
 Sum of Mulliken charges =  -0.00000

 Dipole moment (field-independent basis, Debye):
    X=             -0.0954    Y=             -0.1907    Z=              0.2136  Tot=              0.3019
 Quadrupole moment (field-independent basis, Debye-Ang):
   XX=            -30.8387   YY=            -31.9926   ZZ=            -38.6187
   XY=              0.8026   XZ=             -0.0909   YZ=             -0.1074

 Normal termination of Gaussian 16 at Fri Nov 10 19:36:31 2023.
