 Gaussian 16, Revision B.01,
 Gaussian 16:  EM64L-G16RevB.01 20-Dec-2017

 ---------------------------------
 # TD=(NStates=1) B3LYP/6-31G(d,p)
 ---------------------------------

 -------
 EMISPCT
 -------
 Symbolic Z-matrix:
 Charge =  0 Multiplicity = 1

                         Standard orientation:
 ---------------------------------------------------------------------
 Center     Atomic      Atomic             Coordinates (Angstroms)
 Number     Number       Type             X           Y           Z
 ---------------------------------------------------------------------
      1          6           0       -1.426740    0.251755   -0.024667
      2          6           0       -0.969283   -1.073097   -0.077559
      3          6           0        0.498503   -1.343665    0.035166
      4          6           0        1.411074   -0.244861   -0.032722
      5          6           0        0.975148    1.085601   -0.033261
      6          6           0       -0.481494    1.341420    0.010268
      7          1           0       -2.549262    0.378092    0.145419
      8          1           0       -0.966852    2.468567    0.257191
      9          1           0        1.767206    1.864290    0.009009
     10          1           0        2.503465   -0.548255   -0.011649
     11          1           0        1.058116   -2.387803    0.340205
     12          1           0       -1.855922   -1.877805   -0.003527
 ---------------------------------------------------------------------

 SCF Done:  E(RB3LYP) =  -232.195292752     A.U. after   13 cycles

 Excitation energies and oscillator strengths:

 Excited State   1:      Singlet-A      5.0805 eV  244.04 nm  f=0.0013  <S**2>=0.000
      20 -> 22         0.49163
      21 -> 22         0.13724
      21 -> 23         0.48390
 This state for optimization and/or second-order correction.
 Total Energy, E(TD-HF/TD-DFT) =  -232.008589492
 Copying the excited state density for this state as the 1-particle RhoCI density.

 The electronic state is 1-A.
 Alpha  occ. eigenvalues --  -10.22091 -10.21788 -10.21553 -10.20777 -10.20522
 Alpha  occ. eigenvalues --  -10.20126  -0.82889  -0.74086  -0.71428  -0.59467
 Alpha  occ. eigenvalues --   -0.57496  -0.49346  -0.44434  -0.43148  -0.41568
 Alpha  occ. eigenvalues --   -0.39048  -0.35200  -0.33647  -0.32879  -0.25287
 Alpha  occ. eigenvalues --   -0.23462
 Alpha virt. eigenvalues --   -0.02121  -0.00103   0.05860   0.10115   0.11485
 Alpha virt. eigenvalues --    0.13170   0.13864   0.16157   0.17493   0.26309
 Alpha virt. eigenvalues --    0.27939   0.28939   0.30351   0.47303   0.49006

 Mulliken charges:
               1
     1  C   -0.075818
     2  C   -0.098643
     3  C   -0.096677
     4  C   -0.080012
     5  C   -0.089498
     6  C   -0.100300
     7  H    0.097399
     8  H    0.078837
     9  H    0.097996
    10  H    0.091443
    11  H    0.088454
    12  H    0.086818
 Sum of Mulliken charges =  -0.00000

 Dipole moment (field-independent basis, Debye):
    X=              0.0703    Y=             -0.0145    Z=              0.4275  Tot=              0.4335
 Quadrupole moment (field-independent basis, Debye-Ang):
   XX=            -30.5591   YY=            -32.9186   ZZ=            -39.4565
   XY=             -0.0408   XZ=             -0.2262   YZ=             -0.1005

 Normal termination of Gaussian 16 at Fri Nov 10 23:07:59 2023.
