 Gaussian 16, Revision B.01,
 Gaussian 16:  EM64L-G16RevB.01 20-Dec-2017

 ---------------------------------
 # TD=(NStates=1) B3LYP/6-31G(d,p)
 ---------------------------------

 -------
 EMISPCT
 -------
 Symbolic Z-matrix:
 Charge =  0 Multiplicity = 1

                         Standard orientation:
 ---------------------------------------------------------------------
 Center     Atomic      Atomic             Coordinates (Angstroms)
 Number     Number       Type             X           Y           Z
 ---------------------------------------------------------------------
      1          6           0       -0.867769   -1.154336   -0.005567
      2          6           0        0.519393   -1.279664   -0.040926
      3          6           0        1.389804   -0.187243   -0.007018
      4          6           0        0.909976    1.058769   -0.014164
      5          6           0       -0.556843    1.364421   -0.032014
      6          6           0       -1.383301    0.237142    0.078454
      7          1           0       -1.611958   -2.007708   -0.137406
      8          1           0       -2.391439    0.208202   -0.135255
      9          1           0       -1.103813    2.186789    0.089222
     10          1           0        1.597420    1.972925    0.018049
     11          1           0        2.485655   -0.463628    0.015185
     12          1           0        0.956582   -2.131119    0.277613
 ---------------------------------------------------------------------

 SCF Done:  E(RB3LYP) =  -232.198434187     A.U. after   13 cycles

 Excitation energies and oscillator strengths:

 Excited State   1:      Singlet-A      5.2177 eV  237.62 nm  f=0.0014  <S**2>=0.000
      20 -> 22         0.47391
      20 -> 23         0.12619
      21 -> 22         0.19326
      21 -> 23        -0.47081
 This state for optimization and/or second-order correction.
 Total Energy, E(TD-HF/TD-DFT) =  -232.006687760
 Copying the excited state density for this state as the 1-particle RhoCI density.

 The electronic state is 1-A.
 Alpha  occ. eigenvalues --  -10.20238 -10.19833 -10.19368 -10.18953 -10.18678
 Alpha  occ. eigenvalues --  -10.17823  -0.84087  -0.74736  -0.73188  -0.61202
 Alpha  occ. eigenvalues --   -0.58793  -0.51272  -0.47153  -0.43483  -0.41826
 Alpha  occ. eigenvalues --   -0.40944  -0.36463  -0.33230  -0.32410  -0.25079
 Alpha  occ. eigenvalues --   -0.23939
 Alpha virt. eigenvalues --   -0.01425  -0.00065   0.09161   0.12973   0.13974
 Alpha virt. eigenvalues --    0.15240   0.16538   0.19025   0.20085   0.26670
 Alpha virt. eigenvalues --    0.28042   0.30829   0.32996   0.46058   0.47069

 Mulliken charges:
               1
     1  C   -0.107111
     2  C   -0.075748
     3  C   -0.068896
     4  C   -0.101899
     5  C   -0.076203
     6  C   -0.096632
     7  H    0.091870
     8  H    0.084852
     9  H    0.093550
    10  H    0.080635
    11  H    0.091237
    12  H    0.084344
 Sum of Mulliken charges =  -0.00000

 Dipole moment (field-independent basis, Debye):
    X=             -0.0613    Y=             -0.0468    Z=              0.0772  Tot=              0.1091
 Quadrupole moment (field-independent basis, Debye-Ang):
   XX=            -31.2261   YY=            -32.0758   ZZ=            -38.5041
   XY=             -0.2265   XZ=              0.6483   YZ=             -0.0817

 Normal termination of Gaussian 16 at Fri Nov 10 21:41:34 2023.
