 Gaussian 16, Revision B.01,
 Gaussian 16:  EM64L-G16RevB.01 20-Dec-2017

 ---------------------------------
 # TD=(NStates=1) B3LYP/6-31G(d,p)
 ---------------------------------

 -------
 EMISPCT
 -------
 Symbolic Z-matrix:
 Charge =  0 Multiplicity = 1

                         Standard orientation:
 ---------------------------------------------------------------------
 Center     Atomic      Atomic             Coordinates (Angstroms)
 Number     Number       Type             X           Y           Z
 ---------------------------------------------------------------------
      1          6           0        1.452656    0.071094   -0.025932
      2          6           0        0.584803    1.242804    0.054859
      3          6           0       -0.874370    1.160455   -0.045426
      4          6           0       -1.481428   -0.129266   -0.015549
      5          6           0       -0.603936   -1.231654   -0.062319
      6          6           0        0.852701   -1.172532   -0.041222
      7          1           0        2.521731    0.457412    0.256692
      8          1           0        1.575980   -1.814781    0.110052
      9          1           0       -0.962063   -2.273186    0.105985
     10          1           0       -2.617476   -0.379924    0.499628
     11          1           0       -1.368668    2.091703   -0.164012
     12          1           0        1.267940    2.273375    0.005190
 ---------------------------------------------------------------------

 SCF Done:  E(RB3LYP) =  -232.165346736     A.U. after   14 cycles

 Excitation energies and oscillator strengths:

 Excited State   1:      Singlet-A      4.9600 eV  249.97 nm  f=0.0037  <S**2>=0.000
      20 -> 22        -0.17796
      20 -> 23         0.40452
      21 -> 22         0.50057
      21 -> 23         0.23178
 This state for optimization and/or second-order correction.
 Total Energy, E(TD-HF/TD-DFT) =  -231.983069222
 Copying the excited state density for this state as the 1-particle RhoCI density.

 The electronic state is 1-A.
 Alpha  occ. eigenvalues --  -10.21795 -10.21075 -10.20593 -10.20395 -10.19960
 Alpha  occ. eigenvalues --  -10.18995  -0.83522  -0.74704  -0.72140  -0.60849
 Alpha  occ. eigenvalues --   -0.57856  -0.50338  -0.46317  -0.43321  -0.41066
 Alpha  occ. eigenvalues --   -0.39386  -0.35657  -0.32871  -0.32473  -0.24996
 Alpha  occ. eigenvalues --   -0.23801
 Alpha virt. eigenvalues --   -0.01640  -0.01429   0.06582   0.08719   0.13278
 Alpha virt. eigenvalues --    0.14678   0.15551   0.16829   0.18111   0.26436
 Alpha virt. eigenvalues --    0.28661   0.29914   0.30236   0.45831   0.48583

 Mulliken charges:
               1
     1  C   -0.094553
     2  C   -0.086771
     3  C   -0.100875
     4  C   -0.087548
     5  C   -0.099154
     6  C   -0.060873
     7  H    0.091926
     8  H    0.088625
     9  H    0.089738
    10  H    0.091398
    11  H    0.098551
    12  H    0.069536
 Sum of Mulliken charges =  -0.00000

 Dipole moment (field-independent basis, Debye):
    X=              0.2024    Y=             -0.0527    Z=              0.4768  Tot=              0.5206
 Quadrupole moment (field-independent basis, Debye-Ang):
   XX=            -31.7034   YY=            -32.4236   ZZ=            -38.8961
   XY=              0.1316   XZ=             -0.2498   YZ=             -0.7611

 Normal termination of Gaussian 16 at Fri Nov 10 19:39:38 2023.
