 Gaussian 16, Revision B.01,
 Gaussian 16:  EM64L-G16RevB.01 20-Dec-2017

 ---------------------------------
 # TD=(NStates=1) B3LYP/6-31G(d,p)
 ---------------------------------

 -------
 EMISPCT
 -------
 Symbolic Z-matrix:
 Charge =  0 Multiplicity = 1

                         Standard orientation:
 ---------------------------------------------------------------------
 Center     Atomic      Atomic             Coordinates (Angstroms)
 Number     Number       Type             X           Y           Z
 ---------------------------------------------------------------------
      1          6           0       -0.241244   -1.451094   -0.007042
      2          6           0       -1.317363   -0.528053    0.017909
      3          6           0       -1.101092    0.832909   -0.076500
      4          6           0        0.211791    1.372748    0.005202
      5          6           0        1.322617    0.597724    0.094953
      6          6           0        1.161849   -0.858605   -0.079312
      7          1           0       -0.414264   -2.373044    0.337164
      8          1           0        2.093883   -1.643543   -0.148630
      9          1           0        2.398648    0.810196   -0.048634
     10          1           0        0.193035    2.553013    0.127180
     11          1           0       -1.960520    1.620566   -0.059806
     12          1           0       -2.530129   -0.760966    0.061471
 ---------------------------------------------------------------------

 SCF Done:  E(RB3LYP) =  -232.182124978     A.U. after   13 cycles

 Excitation energies and oscillator strengths:

 Excited State   1:      Singlet-A      5.0984 eV  243.18 nm  f=0.0003  <S**2>=0.000
      20 -> 22        -0.49143
      21 -> 23         0.50512
 This state for optimization and/or second-order correction.
 Total Energy, E(TD-HF/TD-DFT) =  -231.994762847
 Copying the excited state density for this state as the 1-particle RhoCI density.

 The electronic state is 1-A.
 Alpha  occ. eigenvalues --  -10.22314 -10.20688 -10.20352 -10.20223 -10.19823
 Alpha  occ. eigenvalues --  -10.19761  -0.83726  -0.74285  -0.72307  -0.60015
 Alpha  occ. eigenvalues --   -0.58081  -0.50580  -0.45002  -0.44013  -0.40415
 Alpha  occ. eigenvalues --   -0.39787  -0.35902  -0.34130  -0.31674  -0.25545
 Alpha  occ. eigenvalues --   -0.23508
 Alpha virt. eigenvalues --   -0.02201  -0.00252   0.06132   0.10895   0.11911
 Alpha virt. eigenvalues --    0.13617   0.15760   0.17148   0.17559   0.25457
 Alpha virt. eigenvalues --    0.27844   0.29784   0.33041   0.45680   0.48844

 Mulliken charges:
               1
     1  C   -0.096242
     2  C   -0.081466
     3  C   -0.070366
     4  C   -0.082018
     5  C   -0.080003
     6  C   -0.123334
     7  H    0.099072
     8  H    0.089134
     9  H    0.101392
    10  H    0.081318
    11  H    0.084923
    12  H    0.077590
 Sum of Mulliken charges =  -0.00000

 Dipole moment (field-independent basis, Debye):
    X=              0.0319    Y=              0.0233    Z=              0.1915  Tot=              0.1956
 Quadrupole moment (field-independent basis, Debye-Ang):
   XX=            -31.5109   YY=            -32.2655   ZZ=            -39.1249
   XY=             -0.8265   XZ=             -0.5073   YZ=             -0.4239

 Normal termination of Gaussian 16 at Fri Nov 10 19:51:13 2023.
