 Gaussian 16, Revision B.01,
 Gaussian 16:  EM64L-G16RevB.01 20-Dec-2017

 ---------------------------------
 # TD=(NStates=1) B3LYP/6-31G(d,p)
 ---------------------------------

 -------
 EMISPCT
 -------
 Symbolic Z-matrix:
 Charge =  0 Multiplicity = 1

                         Standard orientation:
 ---------------------------------------------------------------------
 Center     Atomic      Atomic             Coordinates (Angstroms)
 Number     Number       Type             X           Y           Z
 ---------------------------------------------------------------------
      1          6           0        1.393488    0.395581   -0.052337
      2          6           0        0.355758    1.317912    0.042563
      3          6           0       -1.058968    0.980742   -0.007130
      4          6           0       -1.451842   -0.411105    0.018056
      5          6           0       -0.338688   -1.296068    0.019305
      6          6           0        1.064639   -0.958387   -0.072591
      7          1           0        2.471036    0.722870    0.286368
      8          1           0        1.787546   -1.904124    0.177350
      9          1           0       -0.466902   -2.304145   -0.042480
     10          1           0       -2.341925   -0.905948    0.034690
     11          1           0       -1.939586    1.714032   -0.037494
     12          1           0        0.703511    2.505259   -0.105635
 ---------------------------------------------------------------------

 SCF Done:  E(RB3LYP) =  -232.191131521     A.U. after   13 cycles

 Excitation energies and oscillator strengths:

 Excited State   1:      Singlet-A      5.1162 eV  242.34 nm  f=0.0047  <S**2>=0.000
      20 -> 22        -0.31793
      20 -> 23         0.31309
      21 -> 22         0.41906
      21 -> 23         0.35338
 This state for optimization and/or second-order correction.
 Total Energy, E(TD-HF/TD-DFT) =  -232.003114741
 Copying the excited state density for this state as the 1-particle RhoCI density.

 The electronic state is 1-A.
 Alpha  occ. eigenvalues --  -10.21400 -10.21256 -10.20521 -10.20225 -10.19604
 Alpha  occ. eigenvalues --  -10.18547  -0.83771  -0.74497  -0.72439  -0.59902
 Alpha  occ. eigenvalues --   -0.58801  -0.50421  -0.45854  -0.43274  -0.41927
 Alpha  occ. eigenvalues --   -0.39011  -0.35817  -0.33646  -0.32386  -0.25233
 Alpha  occ. eigenvalues --   -0.23909
 Alpha virt. eigenvalues --   -0.01468  -0.00772   0.06721   0.11179   0.12819
 Alpha virt. eigenvalues --    0.14024   0.15078   0.16554   0.19974   0.26520
 Alpha virt. eigenvalues --    0.28648   0.29959   0.31068   0.46727   0.48844

 Mulliken charges:
               1
     1  C   -0.089051
     2  C   -0.082158
     3  C   -0.110263
     4  C   -0.057542
     5  C   -0.085035
     6  C   -0.091642
     7  H    0.092125
     8  H    0.085018
     9  H    0.076507
    10  H    0.094655
    11  H    0.093776
    12  H    0.073611
 Sum of Mulliken charges =  -0.00000

 Dipole moment (field-independent basis, Debye):
    X=             -0.2529    Y=             -0.2934    Z=              0.1838  Tot=              0.4287
 Quadrupole moment (field-independent basis, Debye-Ang):
   XX=            -31.4315   YY=            -32.2507   ZZ=            -39.0129
   XY=              0.2237   XZ=              0.7703   YZ=             -0.3579

 Normal termination of Gaussian 16 at Fri Nov 10 22:33:47 2023.
