 Gaussian 16, Revision B.01,
 Gaussian 16:  EM64L-G16RevB.01 20-Dec-2017

 ---------------------------------
 # TD=(NStates=1) B3LYP/6-31G(d,p)
 ---------------------------------

 -------
 EMISPCT
 -------
 Symbolic Z-matrix:
 Charge =  0 Multiplicity = 1

                         Standard orientation:
 ---------------------------------------------------------------------
 Center     Atomic      Atomic             Coordinates (Angstroms)
 Number     Number       Type             X           Y           Z
 ---------------------------------------------------------------------
      1          6           0        0.981229   -1.053596    0.005596
      2          6           0       -0.423700   -1.287770    0.029277
      3          6           0       -1.465104   -0.339441   -0.064969
      4          6           0       -1.005700    1.012628    0.041178
      5          6           0        0.434039    1.313990   -0.042081
      6          6           0        1.438373    0.301644    0.019563
      7          1           0        1.788364   -1.758689    0.104697
      8          1           0        2.472806    0.715888   -0.081902
      9          1           0        0.769265    2.300894   -0.213913
     10          1           0       -1.580044    2.026302    0.439272
     11          1           0       -2.581882   -0.503574   -0.215264
     12          1           0       -0.623329   -2.465557    0.035736
 ---------------------------------------------------------------------

 SCF Done:  E(RB3LYP) =  -232.200316733     A.U. after   13 cycles

 Excitation energies and oscillator strengths:

 Excited State   1:      Singlet-A      4.9530 eV  250.32 nm  f=0.0063  <S**2>=0.000
      20 -> 22        -0.33020
      20 -> 23         0.27402
      21 -> 22         0.43819
      21 -> 23         0.35101
 This state for optimization and/or second-order correction.
 Total Energy, E(TD-HF/TD-DFT) =  -232.018296145
 Copying the excited state density for this state as the 1-particle RhoCI density.

 The electronic state is 1-A.
 Alpha  occ. eigenvalues --  -10.21420 -10.21174 -10.21004 -10.19833 -10.19710
 Alpha  occ. eigenvalues --  -10.19083  -0.83288  -0.73876  -0.72388  -0.59139
 Alpha  occ. eigenvalues --   -0.58825  -0.50479  -0.45347  -0.43783  -0.41853
 Alpha  occ. eigenvalues --   -0.39410  -0.35896  -0.33213  -0.32403  -0.24791
 Alpha  occ. eigenvalues --   -0.23347
 Alpha virt. eigenvalues --   -0.01718  -0.00501   0.07292   0.11416   0.12839
 Alpha virt. eigenvalues --    0.14102   0.14731   0.16171   0.19019   0.26725
 Alpha virt. eigenvalues --    0.28526   0.29384   0.31099   0.46878   0.48413

 Mulliken charges:
               1
     1  C   -0.086462
     2  C   -0.094633
     3  C   -0.092615
     4  C   -0.099954
     5  C   -0.086919
     6  C   -0.084125
     7  H    0.096728
     8  H    0.090392
     9  H    0.085826
    10  H    0.087220
    11  H    0.108638
    12  H    0.075904
 Sum of Mulliken charges =  -0.00000

 Dipole moment (field-independent basis, Debye):
    X=              0.1491    Y=              0.1428    Z=              0.0137  Tot=              0.2069
 Quadrupole moment (field-independent basis, Debye-Ang):
   XX=            -31.2273   YY=            -32.2518   ZZ=            -39.0181
   XY=              0.1144   XZ=             -0.1610   YZ=              0.1258

 Normal termination of Gaussian 16 at Fri Nov 10 21:12:31 2023.
