 Gaussian 16, Revision B.01,
 Gaussian 16:  EM64L-G16RevB.01 20-Dec-2017

 ---------------------------------
 # TD=(NStates=1) B3LYP/6-31G(d,p)
 ---------------------------------

 -------
 EMISPCT
 -------
 Symbolic Z-matrix:
 Charge =  0 Multiplicity = 1

                         Standard orientation:
 ---------------------------------------------------------------------
 Center     Atomic      Atomic             Coordinates (Angstroms)
 Number     Number       Type             X           Y           Z
 ---------------------------------------------------------------------
      1          6           0       -0.107981   -1.408807   -0.003182
      2          6           0       -1.325963   -0.620380    0.000235
      3          6           0       -1.202685    0.811025    0.009022
      4          6           0        0.123386    1.401889    0.040437
      5          6           0        1.321288    0.578564   -0.079117
      6          6           0        1.182014   -0.773230   -0.035333
      7          1           0       -0.091326   -2.505531    0.067719
      8          1           0        2.043374   -1.398508    0.323534
      9          1           0        2.351857    1.087195   -0.077915
     10          1           0        0.228482    2.549128    0.267861
     11          1           0       -2.195722    1.376659   -0.188594
     12          1           0       -2.277019   -1.043311    0.015019
 ---------------------------------------------------------------------

 SCF Done:  E(RB3LYP) =  -232.220075041     A.U. after   13 cycles

 Excitation energies and oscillator strengths:

 Excited State   1:      Singlet-A      5.0200 eV  246.98 nm  f=0.0011  <S**2>=0.000
      20 -> 22         0.46824
      21 -> 22        -0.13241
      21 -> 23         0.50697
 This state for optimization and/or second-order correction.
 Total Energy, E(TD-HF/TD-DFT) =  -232.035592289
 Copying the excited state density for this state as the 1-particle RhoCI density.

 The electronic state is 1-A.
 Alpha  occ. eigenvalues --  -10.21147 -10.20735 -10.20216 -10.19947 -10.19665
 Alpha  occ. eigenvalues --  -10.19380  -0.83209  -0.74024  -0.72133  -0.59795
 Alpha  occ. eigenvalues --   -0.58323  -0.50344  -0.45842  -0.43050  -0.41829
 Alpha  occ. eigenvalues --   -0.40049  -0.35190  -0.33813  -0.33608  -0.24759
 Alpha  occ. eigenvalues --   -0.23399
 Alpha virt. eigenvalues --   -0.01444  -0.00579   0.07515   0.12842   0.13573
 Alpha virt. eigenvalues --    0.13749   0.15325   0.17757   0.18050   0.27219
 Alpha virt. eigenvalues --    0.28269   0.29680   0.31106   0.47311   0.49242

 Mulliken charges:
               1
     1  C   -0.093871
     2  C   -0.078651
     3  C   -0.097934
     4  C   -0.102127
     5  C   -0.081083
     6  C   -0.088966
     7  H    0.087905
     8  H    0.091745
     9  H    0.091861
    10  H    0.087058
    11  H    0.093667
    12  H    0.090398
 Sum of Mulliken charges =  -0.00000

 Dipole moment (field-independent basis, Debye):
    X=             -0.0411    Y=             -0.0519    Z=              0.2364  Tot=              0.2455
 Quadrupole moment (field-independent basis, Debye-Ang):
   XX=            -31.1174   YY=            -32.1545   ZZ=            -38.9785
   XY=              0.1523   XZ=              0.7679   YZ=             -0.2674

 Normal termination of Gaussian 16 at Fri Nov 10 21:26:02 2023.
