 Gaussian 16, Revision B.01,
 Gaussian 16:  EM64L-G16RevB.01 20-Dec-2017

 ---------------------------------
 # TD=(NStates=1) B3LYP/6-31G(d,p)
 ---------------------------------

 -------
 EMISPCT
 -------
 Symbolic Z-matrix:
 Charge =  0 Multiplicity = 1

                         Standard orientation:
 ---------------------------------------------------------------------
 Center     Atomic      Atomic             Coordinates (Angstroms)
 Number     Number       Type             X           Y           Z
 ---------------------------------------------------------------------
      1          6           0       -1.073603    0.917185    0.060305
      2          6           0       -1.357421   -0.452056   -0.069472
      3          6           0       -0.305336   -1.348898   -0.062042
      4          6           0        1.104206   -1.012992    0.016061
      5          6           0        1.397550    0.493537    0.006593
      6          6           0        0.258784    1.424933   -0.010807
      7          1           0       -2.032766    1.565263    0.234746
      8          1           0        0.429407    2.562138   -0.113556
      9          1           0        2.548103    0.685971   -0.216978
     10          1           0        1.785786   -1.702246    0.395784
     11          1           0       -0.621484   -2.338181    0.038424
     12          1           0       -2.254118   -0.903200    0.017748
 ---------------------------------------------------------------------

 SCF Done:  E(RB3LYP) =  -232.195824365     A.U. after   14 cycles

 Excitation energies and oscillator strengths:

 Excited State   1:      Singlet-A      4.9369 eV  251.14 nm  f=0.0010  <S**2>=0.000
      20 -> 22         0.52155
      21 -> 23        -0.46891
 This state for optimization and/or second-order correction.
 Total Energy, E(TD-HF/TD-DFT) =  -232.014395536
 Copying the excited state density for this state as the 1-particle RhoCI density.

 The electronic state is 1-A.
 Alpha  occ. eigenvalues --  -10.22142 -10.21356 -10.20593 -10.20107 -10.18672
 Alpha  occ. eigenvalues --  -10.18173  -0.83019  -0.73450  -0.72577  -0.59880
 Alpha  occ. eigenvalues --   -0.58786  -0.50982  -0.46358  -0.42996  -0.41211
 Alpha  occ. eigenvalues --   -0.40880  -0.35741  -0.33485  -0.32463  -0.24507
 Alpha  occ. eigenvalues --   -0.23606
 Alpha virt. eigenvalues --   -0.02160  -0.00551   0.08368   0.12155   0.13307
 Alpha virt. eigenvalues --    0.14224   0.14863   0.16837   0.20890   0.25095
 Alpha virt. eigenvalues --    0.28591   0.28912   0.31432   0.46975   0.47304

 Mulliken charges:
               1
     1  C   -0.089523
     2  C   -0.052894
     3  C   -0.083280
     4  C   -0.103749
     5  C   -0.115898
     6  C   -0.096507
     7  H    0.084878
     8  H    0.095796
     9  H    0.096309
    10  H    0.102428
    11  H    0.077660
    12  H    0.084780
 Sum of Mulliken charges =  -0.00000

 Dipole moment (field-independent basis, Debye):
    X=             -0.1999    Y=             -0.2015    Z=              0.2338  Tot=              0.3678
 Quadrupole moment (field-independent basis, Debye-Ang):
   XX=            -31.2079   YY=            -31.9450   ZZ=            -38.9200
   XY=              0.1479   XZ=             -0.2918   YZ=             -0.8213

 Normal termination of Gaussian 16 at Fri Nov 10 22:00:56 2023.
