 Gaussian 16, Revision B.01,
 Gaussian 16:  EM64L-G16RevB.01 20-Dec-2017

 ---------------------------------
 # TD=(NStates=1) B3LYP/6-31G(d,p)
 ---------------------------------

 -------
 EMISPCT
 -------
 Symbolic Z-matrix:
 Charge =  0 Multiplicity = 1

                         Standard orientation:
 ---------------------------------------------------------------------
 Center     Atomic      Atomic             Coordinates (Angstroms)
 Number     Number       Type             X           Y           Z
 ---------------------------------------------------------------------
      1          6           0       -1.433360   -0.155428   -0.029727
      2          6           0       -0.848200    1.155129   -0.033908
      3          6           0        0.615333    1.330302   -0.019214
      4          6           0        1.447987    0.138813    0.024622
      5          6           0        0.820096   -1.199205    0.025519
      6          6           0       -0.607860   -1.306703    0.051764
      7          1           0       -2.536281   -0.131819   -0.038378
      8          1           0       -1.135578   -2.332663   -0.099293
      9          1           0        1.680161   -1.914316   -0.164156
     10          1           0        2.489965    0.246542    0.003771
     11          1           0        1.073093    2.248415   -0.065013
     12          1           0       -1.535328    2.106389    0.248733
 ---------------------------------------------------------------------

 SCF Done:  E(RB3LYP) =  -232.209488320     A.U. after   12 cycles

 Excitation energies and oscillator strengths:

 Excited State   1:      Singlet-A      4.9795 eV  248.99 nm  f=0.0002  <S**2>=0.000
      20 -> 22        -0.47733
      20 -> 23         0.11732
      21 -> 22         0.14732
      21 -> 23         0.48612
 This state for optimization and/or second-order correction.
 Total Energy, E(TD-HF/TD-DFT) =  -232.026493500
 Copying the excited state density for this state as the 1-particle RhoCI density.

 The electronic state is 1-A.
 Alpha  occ. eigenvalues --  -10.21105 -10.21093 -10.20923 -10.20170 -10.19808
 Alpha  occ. eigenvalues --  -10.19754  -0.82461  -0.73387  -0.72361  -0.59836
 Alpha  occ. eigenvalues --   -0.58639  -0.50195  -0.46370  -0.43522  -0.41607
 Alpha  occ. eigenvalues --   -0.39727  -0.34565  -0.34274  -0.32683  -0.24449
 Alpha  occ. eigenvalues --   -0.23763
 Alpha virt. eigenvalues --   -0.01611  -0.00908   0.07830   0.11981   0.12884
 Alpha virt. eigenvalues --    0.14613   0.15357   0.16850   0.18907   0.26149
 Alpha virt. eigenvalues --    0.28003   0.28863   0.30108   0.47582   0.48408

 Mulliken charges:
               1
     1  C   -0.079224
     2  C   -0.101833
     3  C   -0.076964
     4  C   -0.097042
     5  C   -0.089726
     6  C   -0.101452
     7  H    0.096947
     8  H    0.088381
     9  H    0.099740
    10  H    0.089815
    11  H    0.088515
    12  H    0.082843
 Sum of Mulliken charges =  -0.00000

 Dipole moment (field-independent basis, Debye):
    X=              0.1834    Y=              0.1250    Z=             -0.0873  Tot=              0.2385
 Quadrupole moment (field-independent basis, Debye-Ang):
   XX=            -30.6085   YY=            -32.3616   ZZ=            -39.2173
   XY=              0.0151   XZ=             -0.4480   YZ=              0.7599

 Normal termination of Gaussian 16 at Fri Nov 10 21:18:40 2023.
