 Gaussian 16, Revision B.01,
 Gaussian 16:  EM64L-G16RevB.01 20-Dec-2017

 ---------------------------------
 # TD=(NStates=1) B3LYP/6-31G(d,p)
 ---------------------------------

 -------
 EMISPCT
 -------
 Symbolic Z-matrix:
 Charge =  0 Multiplicity = 1

                         Standard orientation:
 ---------------------------------------------------------------------
 Center     Atomic      Atomic             Coordinates (Angstroms)
 Number     Number       Type             X           Y           Z
 ---------------------------------------------------------------------
      1          6           0       -1.073834   -0.880029   -0.033529
      2          6           0       -1.382621    0.450136    0.042811
      3          6           0       -0.268115    1.330324    0.064869
      4          6           0        1.087011    0.926841    0.019823
      5          6           0        1.346843   -0.499111   -0.019384
      6          6           0        0.275176   -1.339409    0.010579
      7          1           0       -1.964537   -1.602665   -0.202571
      8          1           0        0.535480   -2.336924    0.372501
      9          1           0        2.399951   -0.841703   -0.262961
     10          1           0        1.880476    1.711133   -0.135467
     11          1           0       -0.294416    2.323130   -0.071112
     12          1           0       -2.463709    0.814517   -0.211406
 ---------------------------------------------------------------------

 SCF Done:  E(RB3LYP) =  -232.214404251     A.U. after   13 cycles

 Excitation energies and oscillator strengths:

 Excited State   1:      Singlet-A      5.2083 eV  238.05 nm  f=0.0017  <S**2>=0.000
      20 -> 22        -0.44364
      20 -> 23        -0.12900
      21 -> 22        -0.15928
      21 -> 23         0.51048
 This state for optimization and/or second-order correction.
 Total Energy, E(TD-HF/TD-DFT) =  -232.023001524
 Copying the excited state density for this state as the 1-particle RhoCI density.

 The electronic state is 1-A.
 Alpha  occ. eigenvalues --  -10.19959 -10.19798 -10.19700 -10.19587 -10.18876
 Alpha  occ. eigenvalues --  -10.18460  -0.84475  -0.74331  -0.73554  -0.59713
 Alpha  occ. eigenvalues --   -0.59013  -0.51086  -0.45434  -0.43925  -0.41634
 Alpha  occ. eigenvalues --   -0.40612  -0.36115  -0.34224  -0.32485  -0.25009
 Alpha  occ. eigenvalues --   -0.23863
 Alpha virt. eigenvalues --   -0.00856  -0.00412   0.08272   0.11770   0.13064
 Alpha virt. eigenvalues --    0.15948   0.16740   0.17158   0.19703   0.28545
 Alpha virt. eigenvalues --    0.29064   0.31065   0.32280   0.46625   0.50199

 Mulliken charges:
               1
     1  C   -0.093576
     2  C   -0.075161
     3  C   -0.079482
     4  C   -0.097239
     5  C   -0.092568
     6  C   -0.089137
     7  H    0.084037
     8  H    0.092853
     9  H    0.091140
    10  H    0.089146
    11  H    0.078788
    12  H    0.091199
 Sum of Mulliken charges =  -0.00000

 Dipole moment (field-independent basis, Debye):
    X=              0.0718    Y=              0.1507    Z=             -0.2981  Tot=              0.3417
 Quadrupole moment (field-independent basis, Debye-Ang):
   XX=            -31.4061   YY=            -32.3845   ZZ=            -38.4807
   XY=              0.1812   XZ=              0.1973   YZ=             -0.8104

 Normal termination of Gaussian 16 at Fri Nov 10 20:50:03 2023.
