 Gaussian 16, Revision B.01,
 Gaussian 16:  EM64L-G16RevB.01 20-Dec-2017

 ---------------------------------
 # TD=(NStates=1) B3LYP/6-31G(d,p)
 ---------------------------------

 -------
 EMISPCT
 -------
 Symbolic Z-matrix:
 Charge =  0 Multiplicity = 1

                         Standard orientation:
 ---------------------------------------------------------------------
 Center     Atomic      Atomic             Coordinates (Angstroms)
 Number     Number       Type             X           Y           Z
 ---------------------------------------------------------------------
      1          6           0        0.475679   -1.269423    0.114158
      2          6           0        1.465935   -0.260088   -0.140929
      3          6           0        0.922987    1.095027    0.039569
      4          6           0       -0.474549    1.268855    0.080357
      5          6           0       -1.459945    0.279429   -0.131752
      6          6           0       -0.923902   -1.083535   -0.050968
      7          1           0        0.917459   -2.288299    0.323949
      8          1           0       -1.595248   -1.951877    0.131371
      9          1           0       -2.547989    0.356532    0.119940
     10          1           0       -0.906544    2.330450    0.014554
     11          1           0        1.692434    1.954588    0.219831
     12          1           0        2.402650   -0.582981   -0.272253
 ---------------------------------------------------------------------

 SCF Done:  E(RB3LYP) =  -232.203047384     A.U. after   13 cycles

 Excitation energies and oscillator strengths:

 Excited State   1:      Singlet-A      4.8445 eV  255.93 nm  f=0.0105  <S**2>=0.000
      20 -> 22         0.47540
      20 -> 23         0.21677
      21 -> 22         0.35449
      21 -> 23        -0.31716
 This state for optimization and/or second-order correction.
 Total Energy, E(TD-HF/TD-DFT) =  -232.025016599
 Copying the excited state density for this state as the 1-particle RhoCI density.

 The electronic state is 1-A.
 Alpha  occ. eigenvalues --  -10.21131 -10.20237 -10.20004 -10.19977 -10.19796
 Alpha  occ. eigenvalues --  -10.19710  -0.83280  -0.73713  -0.72574  -0.60368
 Alpha  occ. eigenvalues --   -0.57985  -0.50584  -0.46708  -0.43248  -0.41456
 Alpha  occ. eigenvalues --   -0.39493  -0.35806  -0.34856  -0.31779  -0.24030
 Alpha  occ. eigenvalues --   -0.23866
 Alpha virt. eigenvalues --   -0.02595   0.00035   0.07733   0.12425   0.13327
 Alpha virt. eigenvalues --    0.14059   0.15572   0.17633   0.18852   0.27174
 Alpha virt. eigenvalues --    0.27750   0.28138   0.31929   0.47186   0.48084

 Mulliken charges:
               1
     1  C   -0.088437
     2  C   -0.070894
     3  C   -0.094784
     4  C   -0.089768
     5  C   -0.097692
     6  C   -0.097200
     7  H    0.078709
     8  H    0.089717
     9  H    0.103563
    10  H    0.081582
    11  H    0.092925
    12  H    0.092277
 Sum of Mulliken charges =  -0.00000

 Dipole moment (field-independent basis, Debye):
    X=              0.2072    Y=             -0.1880    Z=              0.2990  Tot=              0.4095
 Quadrupole moment (field-independent basis, Debye-Ang):
   XX=            -30.7189   YY=            -32.7040   ZZ=            -38.9184
   XY=             -0.0731   XZ=             -0.5608   YZ=             -0.2399

 Normal termination of Gaussian 16 at Fri Nov 10 19:57:03 2023.
