 Gaussian 16, Revision B.01,
 Gaussian 16:  EM64L-G16RevB.01 20-Dec-2017

 ---------------------------------
 # TD=(NStates=1) B3LYP/6-31G(d,p)
 ---------------------------------

 -------
 EMISPCT
 -------
 Symbolic Z-matrix:
 Charge =  0 Multiplicity = 1

                         Standard orientation:
 ---------------------------------------------------------------------
 Center     Atomic      Atomic             Coordinates (Angstroms)
 Number     Number       Type             X           Y           Z
 ---------------------------------------------------------------------
      1          6           0       -0.842452   -1.169527   -0.033223
      2          6           0       -1.439327    0.094140   -0.035969
      3          6           0       -0.634483    1.256325   -0.033805
      4          6           0        0.841894    1.165697    0.064511
      5          6           0        1.462404   -0.143148   -0.075882
      6          6           0        0.612513   -1.224194    0.020727
      7          1           0       -1.268319   -2.073119    0.042207
      8          1           0        0.986753   -2.104032    0.341383
      9          1           0        2.532102   -0.274753   -0.209608
     10          1           0        1.447746    2.031811    0.249189
     11          1           0       -1.096008    2.239804   -0.063282
     12          1           0       -2.605569    0.304527    0.201944
 ---------------------------------------------------------------------

 SCF Done:  E(RB3LYP) =  -232.208964480     A.U. after   14 cycles

 Excitation energies and oscillator strengths:

 Excited State   1:      Singlet-A      4.9271 eV  251.64 nm  f=0.0031  <S**2>=0.000
      20 -> 22         0.41972
      20 -> 23         0.19874
      21 -> 22        -0.31820
      21 -> 23         0.42722
 This state for optimization and/or second-order correction.
 Total Energy, E(TD-HF/TD-DFT) =  -232.027898242
 Copying the excited state density for this state as the 1-particle RhoCI density.

 The electronic state is 1-A.
 Alpha  occ. eigenvalues --  -10.20471 -10.20275 -10.19754 -10.19464 -10.18712
 Alpha  occ. eigenvalues --  -10.18193  -0.83325  -0.74012  -0.72881  -0.60549
 Alpha  occ. eigenvalues --   -0.58840  -0.51225  -0.47257  -0.43076  -0.41939
 Alpha  occ. eigenvalues --   -0.40658  -0.35391  -0.34572  -0.33395  -0.24341
 Alpha  occ. eigenvalues --   -0.23029
 Alpha virt. eigenvalues --   -0.01422  -0.00315   0.08461   0.13188   0.13952
 Alpha virt. eigenvalues --    0.15818   0.16979   0.17291   0.20196   0.27645
 Alpha virt. eigenvalues --    0.28486   0.29350   0.32455   0.47320   0.49064

 Mulliken charges:
               1
     1  C   -0.073402
     2  C   -0.084408
     3  C   -0.093229
     4  C   -0.098544
     5  C   -0.086530
     6  C   -0.088315
     7  H    0.083358
     8  H    0.084265
     9  H    0.094119
    10  H    0.092019
    11  H    0.089751
    12  H    0.080917
 Sum of Mulliken charges =  -0.00000

 Dipole moment (field-independent basis, Debye):
    X=              0.2056    Y=             -0.0391    Z=              0.3508  Tot=              0.4085
 Quadrupole moment (field-independent basis, Debye-Ang):
   XX=            -31.5771   YY=            -31.4284   ZZ=            -38.6097
   XY=             -0.0626   XZ=             -0.2512   YZ=             -0.2674

 Normal termination of Gaussian 16 at Fri Nov 10 19:37:19 2023.
