 Gaussian 16, Revision B.01,
 Gaussian 16:  EM64L-G16RevB.01 20-Dec-2017

 ---------------------------------
 # TD=(NStates=1) B3LYP/6-31G(d,p)
 ---------------------------------

 -------
 EMISPCT
 -------
 Symbolic Z-matrix:
 Charge =  0 Multiplicity = 1

                         Standard orientation:
 ---------------------------------------------------------------------
 Center     Atomic      Atomic             Coordinates (Angstroms)
 Number     Number       Type             X           Y           Z
 ---------------------------------------------------------------------
      1          6           0        0.850543   -1.113598   -0.048812
      2          6           0       -0.533559   -1.281740   -0.016329
      3          6           0       -1.428023   -0.177612   -0.000674
      4          6           0       -0.873138    1.149517    0.001989
      5          6           0        0.573406    1.240941   -0.016765
      6          6           0        1.417786    0.164293    0.053165
      7          1           0        1.496616   -1.993974    0.067505
      8          1           0        2.403923    0.347829    0.019268
      9          1           0        1.021481    2.345274   -0.144433
     10          1           0       -1.511001    1.957318    0.171398
     11          1           0       -2.430534   -0.368025   -0.083830
     12          1           0       -1.022579   -2.179228    0.134653
 ---------------------------------------------------------------------

 SCF Done:  E(RB3LYP) =  -232.224941331     A.U. after   13 cycles

 Excitation energies and oscillator strengths:

 Excited State   1:      Singlet-A      5.2661 eV  235.44 nm  f=0.0023  <S**2>=0.000
      20 -> 22         0.40153
      20 -> 23        -0.26254
      21 -> 22        -0.35030
      21 -> 23        -0.38293
 This state for optimization and/or second-order correction.
 Total Energy, E(TD-HF/TD-DFT) =  -232.031415883
 Copying the excited state density for this state as the 1-particle RhoCI density.

 The electronic state is 1-A.
 Alpha  occ. eigenvalues --  -10.20011 -10.19333 -10.19154 -10.18738 -10.18316
 Alpha  occ. eigenvalues --  -10.18095  -0.84146  -0.74638  -0.73194  -0.60851
 Alpha  occ. eigenvalues --   -0.59210  -0.51966  -0.46952  -0.43665  -0.42717
 Alpha  occ. eigenvalues --   -0.40589  -0.35845  -0.34471  -0.33046  -0.24745
 Alpha  occ. eigenvalues --   -0.24019
 Alpha virt. eigenvalues --   -0.00885   0.00127   0.09293   0.14082   0.14388
 Alpha virt. eigenvalues --    0.16117   0.17314   0.18878   0.19993   0.28535
 Alpha virt. eigenvalues --    0.29428   0.30554   0.31980   0.47097   0.50739

 Mulliken charges:
               1
     1  C   -0.097864
     2  C   -0.075472
     3  C   -0.087358
     4  C   -0.086271
     5  C   -0.097738
     6  C   -0.053373
     7  H    0.083851
     8  H    0.084238
     9  H    0.070936
    10  H    0.091255
    11  H    0.084941
    12  H    0.082855
 Sum of Mulliken charges =  -0.00000

 Dipole moment (field-independent basis, Debye):
    X=             -0.1109    Y=             -0.0622    Z=              0.1232  Tot=              0.1771
 Quadrupole moment (field-independent basis, Debye-Ang):
   XX=            -30.9398   YY=            -32.0746   ZZ=            -38.4942
   XY=              0.0960   XZ=             -0.1646   YZ=             -0.2878

 Normal termination of Gaussian 16 at Fri Nov 10 20:16:16 2023.
