 Gaussian 16, Revision B.01,
 Gaussian 16:  EM64L-G16RevB.01 20-Dec-2017

 ---------------------------------
 # TD=(NStates=1) B3LYP/6-31G(d,p)
 ---------------------------------

 -------
 EMISPCT
 -------
 Symbolic Z-matrix:
 Charge =  0 Multiplicity = 1

                         Standard orientation:
 ---------------------------------------------------------------------
 Center     Atomic      Atomic             Coordinates (Angstroms)
 Number     Number       Type             X           Y           Z
 ---------------------------------------------------------------------
      1          6           0        1.504333   -0.104651   -0.079723
      2          6           0        0.680342   -1.252698    0.020969
      3          6           0       -0.820885   -1.169556    0.128071
      4          6           0       -1.440933    0.040843   -0.085033
      5          6           0       -0.661161    1.253612   -0.046943
      6          6           0        0.753676    1.220341    0.079204
      7          1           0        2.475345   -0.097268   -0.023560
      8          1           0        1.353039    2.098657    0.332124
      9          1           0       -1.118519    2.083878   -0.259961
     10          1           0       -2.575086    0.183826    0.135976
     11          1           0       -1.303886   -2.028734    0.017127
     12          1           0        1.076879   -2.167719   -0.300980
 ---------------------------------------------------------------------

 SCF Done:  E(RB3LYP) =  -232.181984929     A.U. after   13 cycles

 Excitation energies and oscillator strengths:

 Excited State   1:      Singlet-A      4.8767 eV  254.24 nm  f=0.0010  <S**2>=0.000
      20 -> 22         0.46224
      20 -> 23         0.10733
      21 -> 22        -0.13025
      21 -> 23         0.50751
 This state for optimization and/or second-order correction.
 Total Energy, E(TD-HF/TD-DFT) =  -232.002770500
 Copying the excited state density for this state as the 1-particle RhoCI density.

 The electronic state is 1-A.
 Alpha  occ. eigenvalues --  -10.20388 -10.19928 -10.19605 -10.19311 -10.18705
 Alpha  occ. eigenvalues --  -10.18550  -0.82715  -0.73843  -0.73106  -0.60278
 Alpha  occ. eigenvalues --   -0.59877  -0.52196  -0.47605  -0.42476  -0.42351
 Alpha  occ. eigenvalues --   -0.41371  -0.36056  -0.34317  -0.31773  -0.24514
 Alpha  occ. eigenvalues --   -0.23461
 Alpha virt. eigenvalues --   -0.01805  -0.01251   0.09984   0.12435   0.14485
 Alpha virt. eigenvalues --    0.16010   0.18029   0.18537   0.19824   0.25553
 Alpha virt. eigenvalues --    0.27262   0.30530   0.31034   0.45251   0.48066

 Mulliken charges:
               1
     1  C   -0.069690
     2  C   -0.108173
     3  C   -0.076845
     4  C   -0.095368
     5  C   -0.067101
     6  C   -0.106774
     7  H    0.085474
     8  H    0.090785
     9  H    0.084935
    10  H    0.085188
    11  H    0.086613
    12  H    0.090956
 Sum of Mulliken charges =  -0.00000

 Dipole moment (field-independent basis, Debye):
    X=              0.0967    Y=              0.0976    Z=             -0.0826  Tot=              0.1603
 Quadrupole moment (field-independent basis, Debye-Ang):
   XX=            -31.2138   YY=            -31.7068   ZZ=            -38.4991
   XY=              0.0915   XZ=             -0.0119   YZ=              0.6560

 Normal termination of Gaussian 16 at Fri Nov 10 20:19:30 2023.
