 Gaussian 16, Revision B.01,
 Gaussian 16:  EM64L-G16RevB.01 20-Dec-2017

 ---------------------------------
 # TD=(NStates=1) B3LYP/6-31G(d,p)
 ---------------------------------

 -------
 EMISPCT
 -------
 Symbolic Z-matrix:
 Charge =  0 Multiplicity = 1

                         Standard orientation:
 ---------------------------------------------------------------------
 Center     Atomic      Atomic             Coordinates (Angstroms)
 Number     Number       Type             X           Y           Z
 ---------------------------------------------------------------------
      1          6           0       -1.435864    0.369668   -0.064772
      2          6           0       -0.304573    1.441615    0.046651
      3          6           0        1.114851    0.970864   -0.038329
      4          6           0        1.427542   -0.416036   -0.012398
      5          6           0        0.330550   -1.381074   -0.013334
      6          6           0       -1.095402   -0.972662    0.023118
      7          1           0       -2.326841    0.680678   -0.151135
      8          1           0       -2.022519   -1.595549    0.092511
      9          1           0        0.680741   -2.446642    0.258528
     10          1           0        2.360732   -0.875595   -0.169777
     11          1           0        1.707967    1.680388    0.141742
     12          1           0       -0.622709    2.482467    0.182509
 ---------------------------------------------------------------------

 SCF Done:  E(RB3LYP) =  -232.166678691     A.U. after   14 cycles

 Excitation energies and oscillator strengths:

 Excited State   1:      Singlet-A      4.8462 eV  255.84 nm  f=0.0011  <S**2>=0.000
      20 -> 22        -0.48263
      21 -> 22         0.10210
      21 -> 23         0.50445
 This state for optimization and/or second-order correction.
 Total Energy, E(TD-HF/TD-DFT) =  -231.988583782
 Copying the excited state density for this state as the 1-particle RhoCI density.

 The electronic state is 1-A.
 Alpha  occ. eigenvalues --  -10.21165 -10.21020 -10.20329 -10.20043 -10.19133
 Alpha  occ. eigenvalues --  -10.18893  -0.81837  -0.74556  -0.71538  -0.60128
 Alpha  occ. eigenvalues --   -0.59759  -0.51117  -0.48464  -0.43480  -0.41891
 Alpha  occ. eigenvalues --   -0.39252  -0.36160  -0.33410  -0.32183  -0.24988
 Alpha  occ. eigenvalues --   -0.22679
 Alpha virt. eigenvalues --   -0.02548  -0.00457   0.09704   0.11776   0.13778
 Alpha virt. eigenvalues --    0.14782   0.16924   0.18186   0.19674   0.24948
 Alpha virt. eigenvalues --    0.26109   0.29521   0.29623   0.44655   0.47477

 Mulliken charges:
               1
     1  C   -0.057406
     2  C   -0.122201
     3  C   -0.066262
     4  C   -0.083449
     5  C   -0.111721
     6  C   -0.085592
     7  H    0.073316
     8  H    0.091727
     9  H    0.086520
    10  H    0.098808
    11  H    0.079731
    12  H    0.096529
 Sum of Mulliken charges =  -0.00000

 Dipole moment (field-independent basis, Debye):
    X=             -0.1323    Y=              0.1718    Z=              0.2175  Tot=              0.3071
 Quadrupole moment (field-independent basis, Debye-Ang):
   XX=            -30.6241   YY=            -31.6985   ZZ=            -38.9642
   XY=             -0.6028   XZ=              0.0620   YZ=              0.0305

 Normal termination of Gaussian 16 at Fri Nov 10 21:22:41 2023.
