 Gaussian 16, Revision B.01,
 Gaussian 16:  EM64L-G16RevB.01 20-Dec-2017

 ---------------------------------
 # TD=(NStates=1) B3LYP/6-31G(d,p)
 ---------------------------------

 -------
 EMISPCT
 -------
 Symbolic Z-matrix:
 Charge =  0 Multiplicity = 1

                         Standard orientation:
 ---------------------------------------------------------------------
 Center     Atomic      Atomic             Coordinates (Angstroms)
 Number     Number       Type             X           Y           Z
 ---------------------------------------------------------------------
      1          6           0       -0.620439   -1.274487    0.052584
      2          6           0       -1.421607   -0.160681   -0.036187
      3          6           0       -0.876808    1.201152    0.032150
      4          6           0        0.596303    1.210713   -0.026937
      5          6           0        1.475770    0.115238   -0.008273
      6          6           0        0.808459   -1.141076   -0.096238
      7          1           0       -0.969672   -2.273454    0.484072
      8          1           0        1.477449   -1.982835   -0.187838
      9          1           0        2.558987    0.447193    0.367842
     10          1           0        1.000579    2.251877   -0.000521
     11          1           0       -1.382239    2.107952    0.084715
     12          1           0       -2.455173   -0.255886   -0.250864
 ---------------------------------------------------------------------

 SCF Done:  E(RB3LYP) =  -232.196863310     A.U. after   13 cycles

 Excitation energies and oscillator strengths:

 Excited State   1:      Singlet-A      4.7284 eV  262.21 nm  f=0.0035  <S**2>=0.000
      20 -> 22         0.41251
      20 -> 23        -0.27288
      21 -> 22        -0.39111
      21 -> 23        -0.31849
 This state for optimization and/or second-order correction.
 Total Energy, E(TD-HF/TD-DFT) =  -232.023096225
 Copying the excited state density for this state as the 1-particle RhoCI density.

 The electronic state is 1-A.
 Alpha  occ. eigenvalues --  -10.20381 -10.20036 -10.19995 -10.19833 -10.19481
 Alpha  occ. eigenvalues --  -10.19385  -0.83336  -0.73906  -0.72593  -0.60367
 Alpha  occ. eigenvalues --   -0.58220  -0.50582  -0.46683  -0.43166  -0.41797
 Alpha  occ. eigenvalues --   -0.40546  -0.35315  -0.34184  -0.32655  -0.23702
 Alpha  occ. eigenvalues --   -0.23194
 Alpha virt. eigenvalues --   -0.01985  -0.00606   0.07008   0.12669   0.13562
 Alpha virt. eigenvalues --    0.15180   0.16579   0.17124   0.18779   0.26573
 Alpha virt. eigenvalues --    0.27866   0.31178   0.32008   0.44612   0.46848

 Mulliken charges:
               1
     1  C   -0.081710
     2  C   -0.102268
     3  C   -0.075902
     4  C   -0.094538
     5  C   -0.082140
     6  C   -0.112973
     7  H    0.100791
     8  H    0.089233
     9  H    0.104610
    10  H    0.069174
    11  H    0.094870
    12  H    0.090854
 Sum of Mulliken charges =   0.00000

 Dipole moment (field-independent basis, Debye):
    X=             -0.0182    Y=              0.0805    Z=              0.3327  Tot=              0.3427
 Quadrupole moment (field-independent basis, Debye-Ang):
   XX=            -31.7959   YY=            -31.7612   ZZ=            -38.5855
   XY=             -0.2294   XZ=              0.6104   YZ=             -0.2605

 Normal termination of Gaussian 16 at Fri Nov 10 20:07:44 2023.
