 Gaussian 16, Revision B.01,
 Gaussian 16:  EM64L-G16RevB.01 20-Dec-2017

 ---------------------------------
 # TD=(NStates=1) B3LYP/6-31G(d,p)
 ---------------------------------

 -------
 EMISPCT
 -------
 Symbolic Z-matrix:
 Charge =  0 Multiplicity = 1

                         Standard orientation:
 ---------------------------------------------------------------------
 Center     Atomic      Atomic             Coordinates (Angstroms)
 Number     Number       Type             X           Y           Z
 ---------------------------------------------------------------------
      1          6           0        0.375812   -1.344218   -0.016797
      2          6           0        1.405359   -0.385317   -0.017068
      3          6           0        1.079232    0.988615   -0.117796
      4          6           0       -0.407077    1.369613    0.226364
      5          6           0       -1.380317    0.386302   -0.005526
      6          6           0       -1.053394   -0.988101   -0.069272
      7          1           0        0.709675   -2.422840    0.110633
      8          1           0       -1.809763   -1.874226   -0.003238
      9          1           0       -2.439301    0.564943   -0.154436
     10          1           0       -0.692170    2.409492   -0.039151
     11          1           0        1.727680    1.852391   -0.483874
     12          1           0        2.386186   -0.691131    0.570638
 ---------------------------------------------------------------------

 SCF Done:  E(RB3LYP) =  -232.177317653     A.U. after   14 cycles

 Excitation energies and oscillator strengths:

 Excited State   1:      Singlet-A      4.3732 eV  283.51 nm  f=0.0079  <S**2>=0.000
      20 -> 22        -0.41160
      20 -> 23         0.13170
      21 -> 22         0.36916
      21 -> 23         0.41827
 This state for optimization and/or second-order correction.
 Total Energy, E(TD-HF/TD-DFT) =  -232.016607011
 Copying the excited state density for this state as the 1-particle RhoCI density.

 The electronic state is 1-A.
 Alpha  occ. eigenvalues --  -10.21774 -10.20656 -10.20644 -10.20506 -10.20236
 Alpha  occ. eigenvalues --  -10.20047  -0.82869  -0.74198  -0.71504  -0.59708
 Alpha  occ. eigenvalues --   -0.57808  -0.49826  -0.45775  -0.42533  -0.41685
 Alpha  occ. eigenvalues --   -0.39471  -0.35659  -0.34317  -0.32170  -0.24542
 Alpha  occ. eigenvalues --   -0.22454
 Alpha virt. eigenvalues --   -0.03500  -0.01617   0.07461   0.11054   0.12576
 Alpha virt. eigenvalues --    0.13641   0.15751   0.16889   0.17380   0.24697
 Alpha virt. eigenvalues --    0.28102   0.28903   0.31972   0.44936   0.47458

 Mulliken charges:
               1
     1  C   -0.084945
     2  C   -0.093121
     3  C   -0.115595
     4  C   -0.113271
     5  C   -0.075110
     6  C   -0.086628
     7  H    0.088885
     8  H    0.090789
     9  H    0.096123
    10  H    0.090960
    11  H    0.105679
    12  H    0.096234
 Sum of Mulliken charges =  -0.00000

 Dipole moment (field-independent basis, Debye):
    X=             -0.1688    Y=             -0.0505    Z=             -0.0513  Tot=              0.1835
 Quadrupole moment (field-independent basis, Debye-Ang):
   XX=            -32.3324   YY=            -31.9477   ZZ=            -38.7729
   XY=              0.3765   XZ=              0.7844   YZ=             -1.5643

 Normal termination of Gaussian 16 at Fri Nov 10 20:13:56 2023.
