 Gaussian 16, Revision B.01,
 Gaussian 16:  EM64L-G16RevB.01 20-Dec-2017

 ---------------------------------
 # TD=(NStates=1) B3LYP/6-31G(d,p)
 ---------------------------------

 -------
 EMISPCT
 -------
 Symbolic Z-matrix:
 Charge =  0 Multiplicity = 1

                         Standard orientation:
 ---------------------------------------------------------------------
 Center     Atomic      Atomic             Coordinates (Angstroms)
 Number     Number       Type             X           Y           Z
 ---------------------------------------------------------------------
      1          6           0        1.197725    0.780745    0.059631
      2          6           0       -0.061762    1.408086   -0.060063
      3          6           0       -1.350875    0.596264   -0.048655
      4          6           0       -1.188074   -0.797641    0.089273
      5          6           0        0.123048   -1.321142   -0.042057
      6          6           0        1.294624   -0.661740   -0.035446
      7          1           0        2.246787    1.434457    0.240024
      8          1           0        2.205559   -1.278231   -0.129733
      9          1           0        0.157292   -2.409535   -0.009239
     10          1           0       -2.138055   -1.471221    0.144838
     11          1           0       -2.480987    1.126272   -0.064045
     12          1           0       -0.078713    2.570819    0.042058
 ---------------------------------------------------------------------

 SCF Done:  E(RB3LYP) =  -232.199051843     A.U. after   14 cycles

 Excitation energies and oscillator strengths:

 Excited State   1:      Singlet-A      5.2622 eV  235.61 nm  f=0.0024  <S**2>=0.000
      20 -> 22        -0.23116
      20 -> 23         0.40272
      21 -> 22         0.48841
      21 -> 23         0.21306
 This state for optimization and/or second-order correction.
 Total Energy, E(TD-HF/TD-DFT) =  -232.005669476
 Copying the excited state density for this state as the 1-particle RhoCI density.

 The electronic state is 1-A.
 Alpha  occ. eigenvalues --  -10.22187 -10.21482 -10.21293 -10.20358 -10.19508
 Alpha  occ. eigenvalues --  -10.18688  -0.83852  -0.73428  -0.72903  -0.58963
 Alpha  occ. eigenvalues --   -0.57999  -0.50161  -0.44384  -0.43150  -0.41073
 Alpha  occ. eigenvalues --   -0.39886  -0.35727  -0.33852  -0.32420  -0.24763
 Alpha  occ. eigenvalues --   -0.24417
 Alpha virt. eigenvalues --   -0.01048  -0.00233   0.05918   0.10597   0.12099
 Alpha virt. eigenvalues --    0.13574   0.15012   0.15294   0.18457   0.26557
 Alpha virt. eigenvalues --    0.27885   0.29900   0.32301   0.46498   0.47799

 Mulliken charges:
               1
     1  C   -0.093068
     2  C   -0.102411
     3  C   -0.098741
     4  C   -0.080758
     5  C   -0.077461
     6  C   -0.073282
     7  H    0.079005
     8  H    0.097531
     9  H    0.078891
    10  H    0.091664
    11  H    0.088181
    12  H    0.090450
 Sum of Mulliken charges =  -0.00000

 Dipole moment (field-independent basis, Debye):
    X=             -0.0210    Y=             -0.2040    Z=              0.1198  Tot=              0.2375
 Quadrupole moment (field-independent basis, Debye-Ang):
   XX=            -31.2541   YY=            -32.0903   ZZ=            -39.2965
   XY=             -0.2094   XZ=              0.0475   YZ=              0.2705

 Normal termination of Gaussian 16 at Fri Nov 10 22:00:56 2023.
