 Gaussian 16, Revision B.01,
 Gaussian 16:  EM64L-G16RevB.01 20-Dec-2017

 ---------------------------------
 # TD=(NStates=1) B3LYP/6-31G(d,p)
 ---------------------------------

 -------
 EMISPCT
 -------
 Symbolic Z-matrix:
 Charge =  0 Multiplicity = 1

                         Standard orientation:
 ---------------------------------------------------------------------
 Center     Atomic      Atomic             Coordinates (Angstroms)
 Number     Number       Type             X           Y           Z
 ---------------------------------------------------------------------
      1          6           0       -1.137318    0.858472    0.003421
      2          6           0       -1.329220   -0.487883    0.023245
      3          6           0       -0.211725   -1.420016    0.071942
      4          6           0        1.069186   -0.874767   -0.133687
      5          6           0        1.365868    0.469520    0.043286
      6          6           0        0.291635    1.381854   -0.023811
      7          1           0       -2.045482    1.752827    0.001421
      8          1           0        0.396513    2.516165   -0.050884
      9          1           0        2.269987    0.873534    0.313685
     10          1           0        1.898723   -1.503834   -0.152356
     11          1           0       -0.473601   -2.421950    0.215959
     12          1           0       -2.336704   -0.779826   -0.234201
 ---------------------------------------------------------------------

 SCF Done:  E(RB3LYP) =  -232.197339235     A.U. after   14 cycles

 Excitation energies and oscillator strengths:

 Excited State   1:      Singlet-A      5.0069 eV  247.63 nm  f=0.0005  <S**2>=0.000
      20 -> 22         0.51732
      21 -> 23        -0.47347
 This state for optimization and/or second-order correction.
 Total Energy, E(TD-HF/TD-DFT) =  -232.013340066
 Copying the excited state density for this state as the 1-particle RhoCI density.

 The electronic state is 1-A.
 Alpha  occ. eigenvalues --  -10.20915 -10.20269 -10.19639 -10.18939 -10.18930
 Alpha  occ. eigenvalues --  -10.18782  -0.83798  -0.74660  -0.72451  -0.60274
 Alpha  occ. eigenvalues --   -0.58674  -0.51128  -0.46274  -0.43736  -0.41990
 Alpha  occ. eigenvalues --   -0.40370  -0.35199  -0.34469  -0.32849  -0.24518
 Alpha  occ. eigenvalues --   -0.23210
 Alpha virt. eigenvalues --   -0.01599  -0.00017   0.07252   0.12345   0.14112
 Alpha virt. eigenvalues --    0.14866   0.16767   0.17758   0.18836   0.26266
 Alpha virt. eigenvalues --    0.29240   0.30810   0.32664   0.46423   0.48638

 Mulliken charges:
               1
     1  C   -0.078989
     2  C   -0.096925
     3  C   -0.082721
     4  C   -0.091181
     5  C   -0.070044
     6  C   -0.104630
     7  H    0.072715
     8  H    0.084130
     9  H    0.096975
    10  H    0.081982
    11  H    0.096038
    12  H    0.092650
 Sum of Mulliken charges =  -0.00000

 Dipole moment (field-independent basis, Debye):
    X=              0.1524    Y=             -0.0824    Z=              0.0808  Tot=              0.1912
 Quadrupole moment (field-independent basis, Debye-Ang):
   XX=            -31.7052   YY=            -31.5773   ZZ=            -38.6655
   XY=              0.2467   XZ=              0.7493   YZ=              0.0080

 Normal termination of Gaussian 16 at Fri Nov 10 20:44:20 2023.
