 Gaussian 16, Revision B.01,
 Gaussian 16:  EM64L-G16RevB.01 20-Dec-2017

 ---------------------------------
 # TD=(NStates=1) B3LYP/6-31G(d,p)
 ---------------------------------

 -------
 EMISPCT
 -------
 Symbolic Z-matrix:
 Charge =  0 Multiplicity = 1

                         Standard orientation:
 ---------------------------------------------------------------------
 Center     Atomic      Atomic             Coordinates (Angstroms)
 Number     Number       Type             X           Y           Z
 ---------------------------------------------------------------------
      1          6           0       -1.253389    0.797701    0.008934
      2          6           0        0.042138    1.384067    0.062514
      3          6           0        1.309845    0.635330   -0.027728
      4          6           0        1.190933   -0.825752    0.033074
      5          6           0       -0.028491   -1.344305   -0.039405
      6          6           0       -1.229754   -0.667246   -0.068815
      7          1           0       -2.198281    1.366974    0.136726
      8          1           0       -2.219736   -1.229301    0.075043
      9          1           0       -0.331571   -2.508336    0.058168
     10          1           0        2.066252   -1.441337    0.211220
     11          1           0        2.136684    1.358043   -0.183661
     12          1           0        0.358955    2.575191   -0.108947
 ---------------------------------------------------------------------

 SCF Done:  E(RB3LYP) =  -232.193532266     A.U. after   13 cycles

 Excitation energies and oscillator strengths:

 Excited State   1:      Singlet-A      5.1808 eV  239.31 nm  f=0.0041  <S**2>=0.000
      20 -> 22         0.48884
      20 -> 23        -0.11876
      21 -> 22         0.22131
      21 -> 23         0.44431
 This state for optimization and/or second-order correction.
 Total Energy, E(TD-HF/TD-DFT) =  -232.003140154
 Copying the excited state density for this state as the 1-particle RhoCI density.

 The electronic state is 1-A.
 Alpha  occ. eigenvalues --  -10.21143 -10.20787 -10.20693 -10.20221 -10.19911
 Alpha  occ. eigenvalues --  -10.19536  -0.84072  -0.73965  -0.72791  -0.60929
 Alpha  occ. eigenvalues --   -0.57094  -0.50498  -0.45712  -0.44160  -0.41610
 Alpha  occ. eigenvalues --   -0.38491  -0.35947  -0.34851  -0.31029  -0.25371
 Alpha  occ. eigenvalues --   -0.23793
 Alpha virt. eigenvalues --   -0.02101   0.00309   0.06271   0.10540   0.13186
 Alpha virt. eigenvalues --    0.14269   0.15972   0.16629   0.18063   0.25485
 Alpha virt. eigenvalues --    0.28410   0.30414   0.32034   0.46930   0.49991

 Mulliken charges:
               1
     1  C   -0.093828
     2  C   -0.089760
     3  C   -0.100720
     4  C   -0.096931
     5  C   -0.048207
     6  C   -0.099233
     7  H    0.099647
     8  H    0.090257
     9  H    0.074735
    10  H    0.096178
    11  H    0.103155
    12  H    0.064707
 Sum of Mulliken charges =  -0.00000

 Dipole moment (field-independent basis, Debye):
    X=             -0.0334    Y=             -0.0572    Z=              0.1186  Tot=              0.1358
 Quadrupole moment (field-independent basis, Debye-Ang):
   XX=            -31.3109   YY=            -32.4471   ZZ=            -39.0943
   XY=              0.6607   XZ=             -0.4775   YZ=             -0.7318

 Normal termination of Gaussian 16 at Fri Nov 10 21:49:17 2023.
