 Gaussian 16, Revision B.01,
 Gaussian 16:  EM64L-G16RevB.01 20-Dec-2017

 ---------------------------------
 # TD=(NStates=1) B3LYP/6-31G(d,p)
 ---------------------------------

 -------
 EMISPCT
 -------
 Symbolic Z-matrix:
 Charge =  0 Multiplicity = 1

                         Standard orientation:
 ---------------------------------------------------------------------
 Center     Atomic      Atomic             Coordinates (Angstroms)
 Number     Number       Type             X           Y           Z
 ---------------------------------------------------------------------
      1          6           0        1.370628    0.634257   -0.096836
      2          6           0        0.056347    1.445300   -0.004166
      3          6           0       -1.163025    0.770644    0.036836
      4          6           0       -1.320551   -0.645870   -0.131709
      5          6           0       -0.125984   -1.359340   -0.000588
      6          6           0        1.157393   -0.844985    0.081382
      7          1           0        2.467819    1.054267   -0.341789
      8          1           0        2.003338   -1.481690    0.355815
      9          1           0       -0.060539   -2.542598    0.123291
     10          1           0       -2.327485   -1.163196   -0.051442
     11          1           0       -1.924035    1.600058    0.277209
     12          1           0       -0.007944    2.533122    0.327403
 ---------------------------------------------------------------------

 SCF Done:  E(RB3LYP) =  -232.185926115     A.U. after   14 cycles

 Excitation energies and oscillator strengths:

 Excited State   1:      Singlet-A      4.8713 eV  254.52 nm  f=0.0097  <S**2>=0.000
      20 -> 22         0.59821
      21 -> 23        -0.37353
 This state for optimization and/or second-order correction.
 Total Energy, E(TD-HF/TD-DFT) =  -232.006910638
 Copying the excited state density for this state as the 1-particle RhoCI density.

 The electronic state is 1-A.
 Alpha  occ. eigenvalues --  -10.22788 -10.20788 -10.20694 -10.20240 -10.20139
 Alpha  occ. eigenvalues --  -10.20139  -0.83147  -0.73845  -0.71878  -0.60209
 Alpha  occ. eigenvalues --   -0.56897  -0.50080  -0.45084  -0.43025  -0.41094
 Alpha  occ. eigenvalues --   -0.40199  -0.35727  -0.33275  -0.32208  -0.24703
 Alpha  occ. eigenvalues --   -0.23395
 Alpha virt. eigenvalues --   -0.03211   0.00657   0.06930   0.11125   0.11821
 Alpha virt. eigenvalues --    0.12397   0.14692   0.17326   0.17941   0.25943
 Alpha virt. eigenvalues --    0.26656   0.28369   0.31647   0.46622   0.48099

 Mulliken charges:
               1
     1  C   -0.116128
     2  C   -0.105922
     3  C   -0.078098
     4  C   -0.097830
     5  C   -0.073505
     6  C   -0.084046
     7  H    0.098491
     8  H    0.097691
     9  H    0.076953
    10  H    0.100531
    11  H    0.087060
    12  H    0.094803
 Sum of Mulliken charges =  -0.00000

 Dipole moment (field-independent basis, Debye):
    X=              0.1153    Y=             -0.0506    Z=              0.4067  Tot=              0.4257
 Quadrupole moment (field-independent basis, Debye-Ang):
   XX=            -31.6660   YY=            -31.9088   ZZ=            -39.1083
   XY=             -0.3390   XZ=             -0.4140   YZ=              0.1293

 Normal termination of Gaussian 16 at Fri Nov 10 22:40:50 2023.
