 Gaussian 16, Revision B.01,
 Gaussian 16:  EM64L-G16RevB.01 20-Dec-2017

 ---------------------------------
 # TD=(NStates=1) B3LYP/6-31G(d,p)
 ---------------------------------

 -------
 EMISPCT
 -------
 Symbolic Z-matrix:
 Charge =  0 Multiplicity = 1

                         Standard orientation:
 ---------------------------------------------------------------------
 Center     Atomic      Atomic             Coordinates (Angstroms)
 Number     Number       Type             X           Y           Z
 ---------------------------------------------------------------------
      1          6           0       -0.263638    1.396234    0.005585
      2          6           0        1.105201    0.912038    0.021155
      3          6           0        1.368233   -0.432210    0.035385
      4          6           0        0.241501   -1.349423   -0.090242
      5          6           0       -1.085318   -0.918581   -0.016278
      6          6           0       -1.341759    0.431640    0.034228
      7          1           0       -0.424814    2.496186   -0.096545
      8          1           0       -2.397375    0.950445   -0.012747
      9          1           0       -2.019786   -1.609120    0.206876
     10          1           0        0.401040   -2.445044   -0.104029
     11          1           0        2.376032   -1.056248    0.299903
     12          1           0        1.919593    1.425597   -0.232451
 ---------------------------------------------------------------------

 SCF Done:  E(RB3LYP) =  -232.201986886     A.U. after   13 cycles

 Excitation energies and oscillator strengths:

 Excited State   1:      Singlet-A      5.1386 eV  241.28 nm  f=0.0002  <S**2>=0.000
      20 -> 22         0.51690
      21 -> 23         0.47247
 This state for optimization and/or second-order correction.
 Total Energy, E(TD-HF/TD-DFT) =  -232.013146152
 Copying the excited state density for this state as the 1-particle RhoCI density.

 The electronic state is 1-A.
 Alpha  occ. eigenvalues --  -10.20529 -10.20351 -10.20187 -10.19994 -10.19681
 Alpha  occ. eigenvalues --  -10.18567  -0.84036  -0.74764  -0.72422  -0.60222
 Alpha  occ. eigenvalues --   -0.58332  -0.50640  -0.46023  -0.42914  -0.41717
 Alpha  occ. eigenvalues --   -0.39849  -0.35382  -0.34097  -0.33152  -0.24796
 Alpha  occ. eigenvalues --   -0.23774
 Alpha virt. eigenvalues --   -0.01370  -0.00160   0.06887   0.11436   0.13510
 Alpha virt. eigenvalues --    0.14617   0.16233   0.17135   0.17891   0.27688
 Alpha virt. eigenvalues --    0.29186   0.30390   0.32103   0.45305   0.50639

 Mulliken charges:
               1
     1  C   -0.096320
     2  C   -0.088319
     3  C   -0.087525
     4  C   -0.098647
     5  C   -0.077793
     6  C   -0.085346
     7  H    0.092678
     8  H    0.083897
     9  H    0.090315
    10  H    0.084648
    11  H    0.090538
    12  H    0.091874
 Sum of Mulliken charges =  -0.00000

 Dipole moment (field-independent basis, Debye):
    X=              0.0242    Y=             -0.0300    Z=              0.0118  Tot=              0.0403
 Quadrupole moment (field-independent basis, Debye-Ang):
   XX=            -31.8390   YY=            -31.7754   ZZ=            -38.8296
   XY=             -0.3285   XZ=             -0.1572   YZ=             -0.8715

 Normal termination of Gaussian 16 at Fri Nov 10 21:57:37 2023.
