 Gaussian 16, Revision B.01,
 Gaussian 16:  EM64L-G16RevB.01 20-Dec-2017

 ---------------------------------
 # TD=(NStates=1) B3LYP/6-31G(d,p)
 ---------------------------------

 -------
 EMISPCT
 -------
 Symbolic Z-matrix:
 Charge =  0 Multiplicity = 1

                         Standard orientation:
 ---------------------------------------------------------------------
 Center     Atomic      Atomic             Coordinates (Angstroms)
 Number     Number       Type             X           Y           Z
 ---------------------------------------------------------------------
      1          6           0        1.408173    0.081336    0.006095
      2          6           0        0.642550    1.262058   -0.072948
      3          6           0       -0.787301    1.214478    0.044645
      4          6           0       -1.481866   -0.096457   -0.046319
      5          6           0       -0.611721   -1.277473    0.039081
      6          6           0        0.852614   -1.141252   -0.006888
      7          1           0        2.495554    0.162572    0.038993
      8          1           0        1.291479   -2.063975    0.139649
      9          1           0       -1.006521   -2.274175   -0.044970
     10          1           0       -2.561977   -0.346611   -0.208443
     11          1           0       -1.353094    2.000268    0.400436
     12          1           0        0.999859    2.265781   -0.107664
 ---------------------------------------------------------------------

 SCF Done:  E(RB3LYP) =  -232.214053453     A.U. after   13 cycles

 Excitation energies and oscillator strengths:

 Excited State   1:      Singlet-A      4.9680 eV  249.56 nm  f=0.0003  <S**2>=0.000
      20 -> 22         0.48065
      20 -> 23         0.15829
      21 -> 22        -0.18130
      21 -> 23         0.45897
 This state for optimization and/or second-order correction.
 Total Energy, E(TD-HF/TD-DFT) =  -232.031482079
 Copying the excited state density for this state as the 1-particle RhoCI density.

 The electronic state is 1-A.
 Alpha  occ. eigenvalues --  -10.20610 -10.19767 -10.19550 -10.19478 -10.19022
 Alpha  occ. eigenvalues --  -10.18420  -0.83233  -0.73760  -0.72798  -0.59920
 Alpha  occ. eigenvalues --   -0.59564  -0.51125  -0.47403  -0.43765  -0.41574
 Alpha  occ. eigenvalues --   -0.40705  -0.36025  -0.33662  -0.32826  -0.24087
 Alpha  occ. eigenvalues --   -0.23606
 Alpha virt. eigenvalues --   -0.01340  -0.00676   0.09998   0.12985   0.14040
 Alpha virt. eigenvalues --    0.15707   0.16802   0.17970   0.19560   0.26890
 Alpha virt. eigenvalues --    0.28733   0.29115   0.31457   0.47476   0.48114

 Mulliken charges:
               1
     1  C   -0.076604
     2  C   -0.088801
     3  C   -0.104717
     4  C   -0.101430
     5  C   -0.103898
     6  C   -0.068901
     7  H    0.084917
     8  H    0.087555
     9  H    0.083911
    10  H    0.096356
    11  H    0.099182
    12  H    0.092431
 Sum of Mulliken charges =  -0.00000

 Dipole moment (field-independent basis, Debye):
    X=             -0.0128    Y=             -0.0324    Z=              0.1473  Tot=              0.1514
 Quadrupole moment (field-independent basis, Debye-Ang):
   XX=            -31.7907   YY=            -31.0623   ZZ=            -38.6514
   XY=              0.1585   XZ=              0.1423   YZ=              0.4075

 Normal termination of Gaussian 16 at Fri Nov 10 22:26:39 2023.
