 Gaussian 16, Revision B.01,
 Gaussian 16:  EM64L-G16RevB.01 20-Dec-2017

 ---------------------------------
 # TD=(NStates=1) B3LYP/6-31G(d,p)
 ---------------------------------

 -------
 EMISPCT
 -------
 Symbolic Z-matrix:
 Charge =  0 Multiplicity = 1

                         Standard orientation:
 ---------------------------------------------------------------------
 Center     Atomic      Atomic             Coordinates (Angstroms)
 Number     Number       Type             X           Y           Z
 ---------------------------------------------------------------------
      1          6           0       -1.245522   -0.761450   -0.009595
      2          6           0       -1.317743    0.637093   -0.085345
      3          6           0       -0.028603    1.375808    0.151243
      4          6           0        1.204076    0.778397   -0.058161
      5          6           0        1.291564   -0.708821   -0.095177
      6          6           0        0.077681   -1.407374    0.103880
      7          1           0       -2.154309   -1.284427   -0.082198
      8          1           0        0.184706   -2.306857    0.235238
      9          1           0        2.445732   -1.082572   -0.101785
     10          1           0        2.097695    1.506702   -0.020565
     11          1           0       -0.116201    2.646099    0.130928
     12          1           0       -2.346340    1.039138   -0.202684
 ---------------------------------------------------------------------

 SCF Done:  E(RB3LYP) =  -232.165716194     A.U. after   13 cycles

 Excitation energies and oscillator strengths:

 Excited State   1:      Singlet-A      5.0627 eV  244.90 nm  f=0.0005  <S**2>=0.000
      20 -> 22         0.50532
      20 -> 23         0.10029
      21 -> 22         0.12280
      21 -> 23        -0.46814
 This state for optimization and/or second-order correction.
 Total Energy, E(TD-HF/TD-DFT) =  -231.979664422
 Copying the excited state density for this state as the 1-particle RhoCI density.

 The electronic state is 1-A.
 Alpha  occ. eigenvalues --  -10.21564 -10.21387 -10.20491 -10.20447 -10.19706
 Alpha  occ. eigenvalues --  -10.18753  -0.82909  -0.73479  -0.73134  -0.59658
 Alpha  occ. eigenvalues --   -0.58544  -0.51107  -0.45653  -0.43112  -0.40704
 Alpha  occ. eigenvalues --   -0.40603  -0.34869  -0.34541  -0.32122  -0.24469
 Alpha  occ. eigenvalues --   -0.24043
 Alpha virt. eigenvalues --   -0.01554  -0.00658   0.06684   0.11241   0.12445
 Alpha virt. eigenvalues --    0.13330   0.15267   0.17540   0.18963   0.26141
 Alpha virt. eigenvalues --    0.27804   0.29455   0.30963   0.44834   0.47163

 Mulliken charges:
               1
     1  C   -0.081145
     2  C   -0.096141
     3  C   -0.082362
     4  C   -0.090808
     5  C   -0.097758
     6  C   -0.057562
     7  H    0.092362
     8  H    0.064535
     9  H    0.095258
    10  H    0.095070
    11  H    0.061502
    12  H    0.097049
 Sum of Mulliken charges =  -0.00000

 Dipole moment (field-independent basis, Debye):
    X=             -0.0876    Y=             -0.2019    Z=             -0.0270  Tot=              0.2217
 Quadrupole moment (field-independent basis, Debye-Ang):
   XX=            -30.4203   YY=            -32.5843   ZZ=            -39.1613
   XY=              0.2138   XZ=              0.3453   YZ=             -0.3705

 Normal termination of Gaussian 16 at Fri Nov 10 20:29:27 2023.
