 Gaussian 16, Revision B.01,
 Gaussian 16:  EM64L-G16RevB.01 20-Dec-2017

 ---------------------------------
 # TD=(NStates=1) B3LYP/6-31G(d,p)
 ---------------------------------

 -------
 EMISPCT
 -------
 Symbolic Z-matrix:
 Charge =  0 Multiplicity = 1

                         Standard orientation:
 ---------------------------------------------------------------------
 Center     Atomic      Atomic             Coordinates (Angstroms)
 Number     Number       Type             X           Y           Z
 ---------------------------------------------------------------------
      1          6           0        1.242868   -0.745961   -0.142015
      2          6           0        0.010496   -1.372660    0.090619
      3          6           0       -1.205653   -0.694698   -0.055977
      4          6           0       -1.246431    0.691641    0.024894
      5          6           0       -0.006488    1.420844   -0.039727
      6          6           0        1.215774    0.685936    0.037856
      7          1           0        2.118279   -1.236532    0.029850
      8          1           0        2.361236    1.188016    0.336885
      9          1           0        0.019866    2.598047   -0.099046
     10          1           0       -2.184788    1.186601    0.114612
     11          1           0       -2.155228   -1.237100    0.011323
     12          1           0       -0.222755   -2.409650    0.112474
 ---------------------------------------------------------------------

 SCF Done:  E(RB3LYP) =  -232.201148457     A.U. after   13 cycles

 Excitation energies and oscillator strengths:

 Excited State   1:      Singlet-A      5.0646 eV  244.81 nm  f=0.0049  <S**2>=0.000
      20 -> 23         0.42526
      21 -> 22         0.56414
 This state for optimization and/or second-order correction.
 Total Energy, E(TD-HF/TD-DFT) =  -232.015029338
 Copying the excited state density for this state as the 1-particle RhoCI density.

 The electronic state is 1-A.
 Alpha  occ. eigenvalues --  -10.21671 -10.20764 -10.19408 -10.19075 -10.18918
 Alpha  occ. eigenvalues --  -10.18638  -0.84190  -0.74116  -0.73220  -0.60635
 Alpha  occ. eigenvalues --   -0.58082  -0.51166  -0.46016  -0.43516  -0.41491
 Alpha  occ. eigenvalues --   -0.39933  -0.35756  -0.34361  -0.32934  -0.24681
 Alpha  occ. eigenvalues --   -0.23853
 Alpha virt. eigenvalues --   -0.01261  -0.00574   0.06798   0.11917   0.13267
 Alpha virt. eigenvalues --    0.13818   0.16382   0.18154   0.19779   0.27942
 Alpha virt. eigenvalues --    0.29301   0.30752   0.32244   0.44913   0.47648

 Mulliken charges:
               1
     1  C   -0.083107
     2  C   -0.075648
     3  C   -0.090913
     4  C   -0.072823
     5  C   -0.095862
     6  C   -0.091452
     7  H    0.092675
     8  H    0.071231
     9  H    0.088661
    10  H    0.090042
    11  H    0.083709
    12  H    0.083487
 Sum of Mulliken charges =  -0.00000

 Dipole moment (field-independent basis, Debye):
    X=             -0.2135    Y=             -0.0952    Z=              0.2986  Tot=              0.3792
 Quadrupole moment (field-independent basis, Debye-Ang):
   XX=            -31.3926   YY=            -32.2322   ZZ=            -38.7851
   XY=             -0.0910   XZ=              0.3675   YZ=             -0.0971

 Normal termination of Gaussian 16 at Fri Nov 10 19:48:43 2023.
