 Gaussian 16, Revision B.01,
 Gaussian 16:  EM64L-G16RevB.01 20-Dec-2017

 ---------------------------------
 # TD=(NStates=1) B3LYP/6-31G(d,p)
 ---------------------------------

 -------
 EMISPCT
 -------
 Symbolic Z-matrix:
 Charge =  0 Multiplicity = 1

                         Standard orientation:
 ---------------------------------------------------------------------
 Center     Atomic      Atomic             Coordinates (Angstroms)
 Number     Number       Type             X           Y           Z
 ---------------------------------------------------------------------
      1          6           0        1.238028    0.730805   -0.071053
      2          6           0        1.282905   -0.708587   -0.006646
      3          6           0        0.008191   -1.381756    0.067909
      4          6           0       -1.257301   -0.710169   -0.054531
      5          6           0       -1.299393    0.657897    0.001147
      6          6           0       -0.005502    1.438784    0.058951
      7          1           0        2.361837    1.287219   -0.015997
      8          1           0        0.012943    2.480321    0.207816
      9          1           0       -2.365281    1.152815   -0.091604
     10          1           0       -2.063950   -1.274490   -0.196527
     11          1           0        0.080365   -2.489892    0.323276
     12          1           0        2.172511   -1.317817   -0.201630
 ---------------------------------------------------------------------

 SCF Done:  E(RB3LYP) =  -232.203046975     A.U. after   12 cycles

 Excitation energies and oscillator strengths:

 Excited State   1:      Singlet-A      5.0520 eV  245.42 nm  f=0.0003  <S**2>=0.000
      20 -> 22         0.49768
      21 -> 23         0.49526
 This state for optimization and/or second-order correction.
 Total Energy, E(TD-HF/TD-DFT) =  -232.017389525
 Copying the excited state density for this state as the 1-particle RhoCI density.

 The electronic state is 1-A.
 Alpha  occ. eigenvalues --  -10.21520 -10.21006 -10.20482 -10.20196 -10.20029
 Alpha  occ. eigenvalues --  -10.18546  -0.82978  -0.73990  -0.72198  -0.59637
 Alpha  occ. eigenvalues --   -0.58502  -0.51170  -0.45403  -0.42817  -0.41862
 Alpha  occ. eigenvalues --   -0.40565  -0.35839  -0.33524  -0.32623  -0.25002
 Alpha  occ. eigenvalues --   -0.23347
 Alpha virt. eigenvalues --   -0.01873  -0.00202   0.07503   0.12134   0.12251
 Alpha virt. eigenvalues --    0.14332   0.16279   0.16757   0.18557   0.26571
 Alpha virt. eigenvalues --    0.27445   0.30245   0.30831   0.46412   0.48346

 Mulliken charges:
               1
     1  C   -0.087663
     2  C   -0.088024
     3  C   -0.101941
     4  C   -0.049843
     5  C   -0.101200
     6  C   -0.100273
     7  H    0.074409
     8  H    0.096122
     9  H    0.088367
    10  H    0.086150
    11  H    0.083783
    12  H    0.100113
 Sum of Mulliken charges =  -0.00000

 Dipole moment (field-independent basis, Debye):
    X=             -0.1104    Y=             -0.1805    Z=             -0.0008  Tot=              0.2116
 Quadrupole moment (field-independent basis, Debye-Ang):
   XX=            -31.1995   YY=            -31.9179   ZZ=            -39.0424
   XY=             -0.1891   XZ=              0.1583   YZ=              0.2369

 Normal termination of Gaussian 16 at Fri Nov 10 21:31:30 2023.
