 Gaussian 16, Revision B.01,
 Gaussian 16:  EM64L-G16RevB.01 20-Dec-2017

 ---------------------------------
 # TD=(NStates=1) B3LYP/6-31G(d,p)
 ---------------------------------

 -------
 EMISPCT
 -------
 Symbolic Z-matrix:
 Charge =  0 Multiplicity = 1

                         Standard orientation:
 ---------------------------------------------------------------------
 Center     Atomic      Atomic             Coordinates (Angstroms)
 Number     Number       Type             X           Y           Z
 ---------------------------------------------------------------------
      1          6           0        1.444439    0.019532    0.031578
      2          6           0        0.724656   -1.215710   -0.010478
      3          6           0       -0.753110   -1.180298   -0.108216
      4          6           0       -1.447432   -0.007984    0.003806
      5          6           0       -0.661905    1.167151    0.032496
      6          6           0        0.698266    1.179209   -0.029040
      7          1           0        2.587010   -0.095180    0.289851
      8          1           0        1.245118    2.119689   -0.289728
      9          1           0       -1.213829    2.060988    0.053070
     10          1           0       -2.657325    0.155308    0.239099
     11          1           0       -1.390673   -1.987897    0.137682
     12          1           0        1.400213   -2.024306    0.049153
 ---------------------------------------------------------------------

 SCF Done:  E(RB3LYP) =  -232.203528614     A.U. after   13 cycles

 Excitation energies and oscillator strengths:

 Excited State   1:      Singlet-A      5.2608 eV  235.68 nm  f=0.0008  <S**2>=0.000
      20 -> 22        -0.47203
      21 -> 23         0.52004
 This state for optimization and/or second-order correction.
 Total Energy, E(TD-HF/TD-DFT) =  -232.010197797
 Copying the excited state density for this state as the 1-particle RhoCI density.

 The electronic state is 1-A.
 Alpha  occ. eigenvalues --  -10.20218 -10.19922 -10.19875 -10.19405 -10.18873
 Alpha  occ. eigenvalues --  -10.18134  -0.84624  -0.74622  -0.73315  -0.60865
 Alpha  occ. eigenvalues --   -0.58073  -0.51191  -0.45219  -0.44599  -0.41487
 Alpha  occ. eigenvalues --   -0.39852  -0.36099  -0.34426  -0.32342  -0.25071
 Alpha  occ. eigenvalues --   -0.23962
 Alpha virt. eigenvalues --   -0.00830  -0.00268   0.07305   0.10260   0.14248
 Alpha virt. eigenvalues --    0.15303   0.17049   0.18172   0.19184   0.27740
 Alpha virt. eigenvalues --    0.28986   0.30889   0.33524   0.46183   0.50567

 Mulliken charges:
               1
     1  C   -0.095909
     2  C   -0.086785
     3  C   -0.105476
     4  C   -0.081897
     5  C   -0.070944
     6  C   -0.080544
     7  H    0.090637
     8  H    0.085486
     9  H    0.079033
    10  H    0.086440
    11  H    0.089930
    12  H    0.090029
 Sum of Mulliken charges =  -0.00000

 Dipole moment (field-independent basis, Debye):
    X=              0.0462    Y=              0.0784    Z=              0.2916  Tot=              0.3055
 Quadrupole moment (field-independent basis, Debye-Ang):
   XX=            -30.8082   YY=            -32.9225   ZZ=            -38.5588
   XY=             -0.6583   XZ=             -0.3602   YZ=             -0.7253

 Normal termination of Gaussian 16 at Fri Nov 10 21:46:43 2023.
