 Gaussian 16, Revision B.01,
 Gaussian 16:  EM64L-G16RevB.01 20-Dec-2017

 ---------------------------------
 # TD=(NStates=1) B3LYP/6-31G(d,p)
 ---------------------------------

 -------
 EMISPCT
 -------
 Symbolic Z-matrix:
 Charge =  0 Multiplicity = 1

                         Standard orientation:
 ---------------------------------------------------------------------
 Center     Atomic      Atomic             Coordinates (Angstroms)
 Number     Number       Type             X           Y           Z
 ---------------------------------------------------------------------
      1          6           0       -1.110769    0.919107   -0.068076
      2          6           0        0.223948    1.358919   -0.066374
      3          6           0        1.371198    0.468797    0.020525
      4          6           0        1.079796   -0.896759   -0.017857
      5          6           0       -0.268320   -1.400057    0.083727
      6          6           0       -1.355407   -0.507705   -0.012566
      7          1           0       -1.840373    1.766639    0.226738
      8          1           0       -2.309265   -0.874350    0.006578
      9          1           0       -0.300559   -2.384060   -0.012274
     10          1           0        1.941060   -1.558150   -0.221600
     11          1           0        2.372589    0.922181    0.156445
     12          1           0        0.493874    2.473935    0.207846
 ---------------------------------------------------------------------

 SCF Done:  E(RB3LYP) =  -232.213469462     A.U. after   13 cycles

 Excitation energies and oscillator strengths:

 Excited State   1:      Singlet-A      5.0917 eV  243.50 nm  f=0.0001  <S**2>=0.000
      20 -> 22         0.48221
      21 -> 23         0.51672
 This state for optimization and/or second-order correction.
 Total Energy, E(TD-HF/TD-DFT) =  -232.026351573
 Copying the excited state density for this state as the 1-particle RhoCI density.

 The electronic state is 1-A.
 Alpha  occ. eigenvalues --  -10.20317 -10.20083 -10.19609 -10.19585 -10.19498
 Alpha  occ. eigenvalues --  -10.18792  -0.83515  -0.73689  -0.73406  -0.60403
 Alpha  occ. eigenvalues --   -0.58873  -0.51155  -0.46165  -0.43295  -0.41864
 Alpha  occ. eigenvalues --   -0.41121  -0.34792  -0.34452  -0.32987  -0.24451
 Alpha  occ. eigenvalues --   -0.24084
 Alpha virt. eigenvalues --   -0.01052  -0.00877   0.08345   0.13052   0.13511
 Alpha virt. eigenvalues --    0.14645   0.17333   0.18147   0.18962   0.27806
 Alpha virt. eigenvalues --    0.28365   0.30664   0.31425   0.46771   0.49652

 Mulliken charges:
               1
     1  C   -0.092131
     2  C   -0.093800
     3  C   -0.076803
     4  C   -0.105023
     5  C   -0.060363
     6  C   -0.095338
     7  H    0.095655
     8  H    0.089468
     9  H    0.084001
    10  H    0.086501
    11  H    0.093458
    12  H    0.074376
 Sum of Mulliken charges =  -0.00000

 Dipole moment (field-independent basis, Debye):
    X=              0.0958    Y=             -0.1365    Z=              0.2171  Tot=              0.2737
 Quadrupole moment (field-independent basis, Debye-Ang):
   XX=            -31.6214   YY=            -31.7329   ZZ=            -38.7184
   XY=              0.1863   XZ=             -0.3168   YZ=              1.1812

 Normal termination of Gaussian 16 at Fri Nov 10 20:53:12 2023.
