 Gaussian 16, Revision B.01,
 Gaussian 16:  EM64L-G16RevB.01 20-Dec-2017

 ---------------------------------
 # TD=(NStates=1) B3LYP/6-31G(d,p)
 ---------------------------------

 -------
 EMISPCT
 -------
 Symbolic Z-matrix:
 Charge =  0 Multiplicity = 1

                         Standard orientation:
 ---------------------------------------------------------------------
 Center     Atomic      Atomic             Coordinates (Angstroms)
 Number     Number       Type             X           Y           Z
 ---------------------------------------------------------------------
      1          6           0        1.170770   -0.885633    0.070137
      2          6           0        1.434057    0.516369    0.001670
      3          6           0        0.136007    1.373564   -0.115143
      4          6           0       -1.205007    0.818575    0.069786
      5          6           0       -1.349516   -0.530516   -0.030860
      6          6           0       -0.205444   -1.328725   -0.086314
      7          1           0        2.083731   -1.519291    0.170678
      8          1           0       -0.511413   -2.496955   -0.176852
      9          1           0       -2.345811   -0.992076    0.163405
     10          1           0       -1.831784    1.713460    0.449481
     11          1           0        0.441085    2.537548   -0.347076
     12          1           0        2.278983    0.975511    0.284710
 ---------------------------------------------------------------------

 SCF Done:  E(RB3LYP) =  -232.171357817     A.U. after   13 cycles

 Excitation energies and oscillator strengths:

 Excited State   1:      Singlet-A      4.8510 eV  255.58 nm  f=0.0030  <S**2>=0.000
      20 -> 22        -0.47609
      21 -> 22         0.15434
      21 -> 23         0.49386
 This state for optimization and/or second-order correction.
 Total Energy, E(TD-HF/TD-DFT) =  -231.993085482
 Copying the excited state density for this state as the 1-particle RhoCI density.

 The electronic state is 1-A.
 Alpha  occ. eigenvalues --  -10.21882 -10.20941 -10.20683 -10.20538 -10.19925
 Alpha  occ. eigenvalues --  -10.19780  -0.83284  -0.74464  -0.71334  -0.59696
 Alpha  occ. eigenvalues --   -0.58447  -0.50012  -0.46484  -0.43568  -0.42633
 Alpha  occ. eigenvalues --   -0.37816  -0.35824  -0.33893  -0.31464  -0.25116
 Alpha  occ. eigenvalues --   -0.22745
 Alpha virt. eigenvalues --   -0.02404  -0.00590   0.07245   0.10930   0.12593
 Alpha virt. eigenvalues --    0.13482   0.14604   0.16412   0.18161   0.24275
 Alpha virt. eigenvalues --    0.28248   0.29262   0.31037   0.46402   0.48524

 Mulliken charges:
               1
     1  C   -0.090137
     2  C   -0.088205
     3  C   -0.119061
     4  C   -0.078581
     5  C   -0.088123
     6  C   -0.088783
     7  H    0.095850
     8  H    0.073648
     9  H    0.099293
    10  H    0.106215
    11  H    0.078651
    12  H    0.099234
 Sum of Mulliken charges =  -0.00000

 Dipole moment (field-independent basis, Debye):
    X=              0.1206    Y=              0.1460    Z=              0.4360  Tot=              0.4753
 Quadrupole moment (field-independent basis, Debye-Ang):
   XX=            -31.3162   YY=            -32.4036   ZZ=            -38.9646
   XY=              0.4989   XZ=             -0.1562   YZ=              0.2774

 Normal termination of Gaussian 16 at Fri Nov 10 20:55:08 2023.
