 Gaussian 16, Revision B.01,
 Gaussian 16:  EM64L-G16RevB.01 20-Dec-2017

 ---------------------------------
 # TD=(NStates=1) B3LYP/6-31G(d,p)
 ---------------------------------

 -------
 EMISPCT
 -------
 Symbolic Z-matrix:
 Charge =  0 Multiplicity = 1

                         Standard orientation:
 ---------------------------------------------------------------------
 Center     Atomic      Atomic             Coordinates (Angstroms)
 Number     Number       Type             X           Y           Z
 ---------------------------------------------------------------------
      1          6           0       -1.244887   -0.693926   -0.085626
      2          6           0       -0.021694   -1.394525   -0.017445
      3          6           0        1.284811   -0.732775    0.015705
      4          6           0        1.253405    0.678755   -0.119421
      5          6           0       -0.029720    1.502839    0.000747
      6          6           0       -1.219495    0.712611   -0.016178
      7          1           0       -2.147058   -1.406520   -0.000508
      8          1           0       -2.340545    1.057937    0.117679
      9          1           0       -0.005396    2.538753    0.615986
     10          1           0        2.262945    1.220483   -0.104305
     11          1           0        2.313355   -1.370274    0.270269
     12          1           0       -0.217821   -2.478255    0.434191
 ---------------------------------------------------------------------

 SCF Done:  E(RB3LYP) =  -232.172224625     A.U. after   14 cycles

 Excitation energies and oscillator strengths:

 Excited State   1:      Singlet-A      4.8717 eV  254.50 nm  f=0.0022  <S**2>=0.000
      20 -> 22         0.53053
      21 -> 22        -0.11215
      21 -> 23        -0.45103
 This state for optimization and/or second-order correction.
 Total Energy, E(TD-HF/TD-DFT) =  -231.993192250
 Copying the excited state density for this state as the 1-particle RhoCI density.

 The electronic state is 1-A.
 Alpha  occ. eigenvalues --  -10.22196 -10.21939 -10.21731 -10.20951 -10.20657
 Alpha  occ. eigenvalues --  -10.20116  -0.82998  -0.73371  -0.72192  -0.58921
 Alpha  occ. eigenvalues --   -0.57889  -0.49102  -0.44174  -0.42978  -0.40679
 Alpha  occ. eigenvalues --   -0.39832  -0.36175  -0.32712  -0.31927  -0.24999
 Alpha  occ. eigenvalues --   -0.23672
 Alpha virt. eigenvalues --   -0.03020  -0.00606   0.06033   0.09239   0.10450
 Alpha virt. eigenvalues --    0.12768   0.14247   0.15727   0.17708   0.24982
 Alpha virt. eigenvalues --    0.27443   0.29883   0.31286   0.45436   0.46132

 Mulliken charges:
               1
     1  C   -0.076427
     2  C   -0.090260
     3  C   -0.078354
     4  C   -0.112194
     5  C   -0.114917
     6  C   -0.082652
     7  H    0.096308
     8  H    0.083866
     9  H    0.109295
    10  H    0.090867
    11  H    0.096442
    12  H    0.078026
 Sum of Mulliken charges =  -0.00000

 Dipole moment (field-independent basis, Debye):
    X=             -0.0088    Y=             -0.1703    Z=              0.8123  Tot=              0.8300
 Quadrupole moment (field-independent basis, Debye-Ang):
   XX=            -31.5576   YY=            -32.9981   ZZ=            -39.0285
   XY=              0.6557   XZ=              0.0359   YZ=              0.2760

 Normal termination of Gaussian 16 at Fri Nov 10 20:21:56 2023.
