 Gaussian 16, Revision B.01,
 Gaussian 16:  EM64L-G16RevB.01 20-Dec-2017

 ---------------------------------
 # TD=(NStates=1) B3LYP/6-31G(d,p)
 ---------------------------------

 -------
 EMISPCT
 -------
 Symbolic Z-matrix:
 Charge =  0 Multiplicity = 1

                         Standard orientation:
 ---------------------------------------------------------------------
 Center     Atomic      Atomic             Coordinates (Angstroms)
 Number     Number       Type             X           Y           Z
 ---------------------------------------------------------------------
      1          6           0        0.202103    1.443580    0.018463
      2          6           0        1.413339    0.495098    0.006894
      3          6           0        1.123534   -0.927612    0.038296
      4          6           0       -0.173990   -1.383194   -0.058859
      5          6           0       -1.343111   -0.518324    0.054994
      6          6           0       -1.171998    0.869529   -0.084469
      7          1           0        0.454162    2.516152   -0.105194
      8          1           0       -2.086372    1.610992    0.048265
      9          1           0       -2.536530   -1.049830    0.286655
     10          1           0       -0.348737   -2.367075   -0.180205
     11          1           0        1.821261   -1.614204   -0.043811
     12          1           0        2.396953    1.029503    0.142374
 ---------------------------------------------------------------------

 SCF Done:  E(RB3LYP) =  -232.174913349     A.U. after   14 cycles

 Excitation energies and oscillator strengths:

 Excited State   1:      Singlet-A      4.9437 eV  250.79 nm  f=0.0003  <S**2>=0.000
      20 -> 22         0.49103
      21 -> 23         0.50632
 This state for optimization and/or second-order correction.
 Total Energy, E(TD-HF/TD-DFT) =  -231.993237515
 Copying the excited state density for this state as the 1-particle RhoCI density.

 The electronic state is 1-A.
 Alpha  occ. eigenvalues --  -10.21992 -10.21458 -10.21405 -10.21338 -10.18928
 Alpha  occ. eigenvalues --  -10.18835  -0.82655  -0.73836  -0.71805  -0.59621
 Alpha  occ. eigenvalues --   -0.58788  -0.50333  -0.46399  -0.42888  -0.41553
 Alpha  occ. eigenvalues --   -0.39403  -0.35879  -0.33432  -0.32425  -0.25031
 Alpha  occ. eigenvalues --   -0.23211
 Alpha virt. eigenvalues --   -0.02234  -0.00608   0.05989   0.11135   0.12910
 Alpha virt. eigenvalues --    0.13974   0.15725   0.16053   0.19533   0.24835
 Alpha virt. eigenvalues --    0.27365   0.28636   0.31825   0.45405   0.47939

 Mulliken charges:
               1
     1  C   -0.107598
     2  C   -0.109473
     3  C   -0.057802
     4  C   -0.077670
     5  C   -0.077322
     6  C   -0.092582
     7  H    0.096890
     8  H    0.088114
     9  H    0.070751
    10  H    0.086075
    11  H    0.082670
    12  H    0.097948
 Sum of Mulliken charges =  -0.00000

 Dipole moment (field-independent basis, Debye):
    X=              0.1891    Y=             -0.1014    Z=              0.0532  Tot=              0.2211
 Quadrupole moment (field-independent basis, Debye-Ang):
   XX=            -31.7249   YY=            -31.1590   ZZ=            -39.2701
   XY=              0.2623   XZ=             -0.3611   YZ=              0.1888

 Normal termination of Gaussian 16 at Fri Nov 10 21:06:05 2023.
