 Gaussian 16, Revision B.01,
 Gaussian 16:  EM64L-G16RevB.01 20-Dec-2017

 ---------------------------------
 # TD=(NStates=1) B3LYP/6-31G(d,p)
 ---------------------------------

 -------
 EMISPCT
 -------
 Symbolic Z-matrix:
 Charge =  0 Multiplicity = 1

                         Standard orientation:
 ---------------------------------------------------------------------
 Center     Atomic      Atomic             Coordinates (Angstroms)
 Number     Number       Type             X           Y           Z
 ---------------------------------------------------------------------
      1          6           0        1.326008   -0.592657   -0.071381
      2          6           0        1.154697    0.775410    0.032497
      3          6           0       -0.092798    1.370246   -0.029754
      4          6           0       -1.274581    0.632453    0.025691
      5          6           0       -1.246085   -0.839144   -0.002078
      6          6           0        0.118870   -1.345876    0.043085
      7          1           0        2.279460   -1.112518   -0.068381
      8          1           0        0.222948   -2.276548   -0.004850
      9          1           0       -2.070697   -1.354002    0.022210
     10          1           0       -2.345599    1.100286   -0.079796
     11          1           0       -0.181629    2.322480   -0.077014
     12          1           0        2.178851    1.317711    0.219467
 ---------------------------------------------------------------------

 SCF Done:  E(RB3LYP) =  -232.181304532     A.U. after   13 cycles

 Excitation energies and oscillator strengths:

 Excited State   1:      Singlet-A      5.2248 eV  237.30 nm  f=0.0014  <S**2>=0.000
      20 -> 22         0.39735
      20 -> 23        -0.27814
      21 -> 22        -0.34453
      21 -> 23        -0.38165
 This state for optimization and/or second-order correction.
 Total Energy, E(TD-HF/TD-DFT) =  -231.989297745
 Copying the excited state density for this state as the 1-particle RhoCI density.

 The electronic state is 1-A.
 Alpha  occ. eigenvalues --  -10.20227 -10.19569 -10.19030 -10.18959 -10.17950
 Alpha  occ. eigenvalues --  -10.17622  -0.84016  -0.74324  -0.73725  -0.61420
 Alpha  occ. eigenvalues --   -0.59258  -0.52602  -0.47090  -0.43841  -0.41945
 Alpha  occ. eigenvalues --   -0.41846  -0.35959  -0.33903  -0.32617  -0.24495
 Alpha  occ. eigenvalues --   -0.24033
 Alpha virt. eigenvalues --   -0.00845  -0.00033   0.09111   0.13096   0.14559
 Alpha virt. eigenvalues --    0.15857   0.18267   0.18714   0.20564   0.27129
 Alpha virt. eigenvalues --    0.29054   0.31778   0.32460   0.46336   0.48277

 Mulliken charges:
               1
     1  C   -0.082611
     2  C   -0.088511
     3  C   -0.046556
     4  C   -0.109017
     5  C   -0.063725
     6  C   -0.072952
     7  H    0.093837
     8  H    0.060974
     9  H    0.080089
    10  H    0.078082
    11  H    0.072975
    12  H    0.077414
 Sum of Mulliken charges =  -0.00000

 Dipole moment (field-independent basis, Debye):
    X=              0.0161    Y=             -0.1717    Z=             -0.0008  Tot=              0.1724
 Quadrupole moment (field-independent basis, Debye-Ang):
   XX=            -30.6636   YY=            -32.0530   ZZ=            -38.4806
   XY=             -0.1603   XZ=              0.3488   YZ=              0.0172

 Normal termination of Gaussian 16 at Fri Nov 10 20:07:09 2023.
