 Gaussian 16, Revision B.01,
 Gaussian 16:  EM64L-G16RevB.01 20-Dec-2017

 ---------------------------------
 # TD=(NStates=1) B3LYP/6-31G(d,p)
 ---------------------------------

 -------
 EMISPCT
 -------
 Symbolic Z-matrix:
 Charge =  0 Multiplicity = 1

                         Standard orientation:
 ---------------------------------------------------------------------
 Center     Atomic      Atomic             Coordinates (Angstroms)
 Number     Number       Type             X           Y           Z
 ---------------------------------------------------------------------
      1          6           0        1.323509   -0.593013    0.034083
      2          6           0        0.112767   -1.429519   -0.079539
      3          6           0       -1.158818   -0.859252   -0.028989
      4          6           0       -1.336710    0.599529    0.049361
      5          6           0       -0.106132    1.437034   -0.040844
      6          6           0        1.203003    0.823876    0.017654
      7          1           0        2.322844   -1.089855    0.418468
      8          1           0        2.018895    1.406562   -0.218492
      9          1           0       -0.264730    2.648194   -0.134685
     10          1           0       -2.385280    1.008882    0.297450
     11          1           0       -2.093655   -1.302198    0.008871
     12          1           0        0.176209   -2.543510   -0.081963
 ---------------------------------------------------------------------

 SCF Done:  E(RB3LYP) =  -232.200759654     A.U. after   13 cycles

 Excitation energies and oscillator strengths:

 Excited State   1:      Singlet-A      4.9145 eV  252.28 nm  f=0.0004  <S**2>=0.000
      20 -> 22         0.51122
      21 -> 23        -0.47860
 This state for optimization and/or second-order correction.
 Total Energy, E(TD-HF/TD-DFT) =  -232.020156006
 Copying the excited state density for this state as the 1-particle RhoCI density.

 The electronic state is 1-A.
 Alpha  occ. eigenvalues --  -10.21717 -10.21208 -10.21078 -10.20465 -10.19607
 Alpha  occ. eigenvalues --  -10.19479  -0.82467  -0.73882  -0.71648  -0.59265
 Alpha  occ. eigenvalues --   -0.58876  -0.49931  -0.46419  -0.42949  -0.41382
 Alpha  occ. eigenvalues --   -0.39789  -0.36361  -0.32832  -0.32603  -0.24730
 Alpha  occ. eigenvalues --   -0.23365
 Alpha virt. eigenvalues --   -0.02267  -0.00575   0.08105   0.10948   0.12406
 Alpha virt. eigenvalues --    0.14152   0.15536   0.17300   0.18076   0.25990
 Alpha virt. eigenvalues --    0.27281   0.28610   0.30939   0.47382   0.48201

 Mulliken charges:
               1
     1  C   -0.105581
     2  C   -0.093797
     3  C   -0.065454
     4  C   -0.108504
     5  C   -0.095983
     6  C   -0.082939
     7  H    0.094605
     8  H    0.099176
     9  H    0.080382
    10  H    0.095469
    11  H    0.091133
    12  H    0.091493
 Sum of Mulliken charges =  -0.00000

 Dipole moment (field-independent basis, Debye):
    X=             -0.1497    Y=             -0.0882    Z=              0.1713  Tot=              0.2440
 Quadrupole moment (field-independent basis, Debye-Ang):
   XX=            -31.1274   YY=            -32.0459   ZZ=            -39.0967
   XY=              0.1015   XZ=             -0.1975   YZ=             -0.5230

 Normal termination of Gaussian 16 at Fri Nov 10 21:09:10 2023.
