 Gaussian 16, Revision B.01,
 Gaussian 16:  EM64L-G16RevB.01 20-Dec-2017

 ---------------------------------
 # TD=(NStates=1) B3LYP/6-31G(d,p)
 ---------------------------------

 -------
 EMISPCT
 -------
 Symbolic Z-matrix:
 Charge =  0 Multiplicity = 1

                         Standard orientation:
 ---------------------------------------------------------------------
 Center     Atomic      Atomic             Coordinates (Angstroms)
 Number     Number       Type             X           Y           Z
 ---------------------------------------------------------------------
      1          6           0        1.254645    0.556692    0.143959
      2          6           0        0.164466    1.410538   -0.004527
      3          6           0       -1.144427    0.832900   -0.106567
      4          6           0       -1.327291   -0.595432    0.033343
      5          6           0       -0.110534   -1.361560   -0.013858
      6          6           0        1.123788   -0.767644   -0.062509
      7          1           0        2.387920    0.860540    0.040606
      8          1           0        2.073004   -1.469557   -0.254129
      9          1           0       -0.039734   -2.565449    0.077959
     10          1           0       -2.315267   -1.266263    0.213679
     11          1           0       -2.187527    1.453544    0.079848
     12          1           0        0.317724    2.534218   -0.097015
 ---------------------------------------------------------------------

 SCF Done:  E(RB3LYP) =  -232.189748833     A.U. after   12 cycles

 Excitation energies and oscillator strengths:

 Excited State   1:      Singlet-A      5.2752 eV  235.03 nm  f=0.0019  <S**2>=0.000
      20 -> 22        -0.11906
      20 -> 23         0.43608
      21 -> 22         0.52965
      21 -> 23         0.12031
 This state for optimization and/or second-order correction.
 Total Energy, E(TD-HF/TD-DFT) =  -231.995888628
 Copying the excited state density for this state as the 1-particle RhoCI density.

 The electronic state is 1-A.
 Alpha  occ. eigenvalues --  -10.21635 -10.21489 -10.20743 -10.20024 -10.19575
 Alpha  occ. eigenvalues --  -10.19258  -0.84945  -0.73701  -0.73381  -0.59299
 Alpha  occ. eigenvalues --   -0.58145  -0.50062  -0.44237  -0.42826  -0.40861
 Alpha  occ. eigenvalues --   -0.40305  -0.35999  -0.33068  -0.32833  -0.25116
 Alpha  occ. eigenvalues --   -0.24443
 Alpha virt. eigenvalues --   -0.00907  -0.00561   0.05268   0.10469   0.11561
 Alpha virt. eigenvalues --    0.13186   0.14779   0.15847   0.17776   0.27486
 Alpha virt. eigenvalues --    0.28842   0.31443   0.32834   0.46454   0.49212

 Mulliken charges:
               1
     1  C   -0.075217
     2  C   -0.096840
     3  C   -0.108982
     4  C   -0.092088
     5  C   -0.078761
     6  C   -0.066679
     7  H    0.080174
     8  H    0.082249
     9  H    0.073895
    10  H    0.099273
    11  H    0.082871
    12  H    0.100105
 Sum of Mulliken charges =  -0.00000

 Dipole moment (field-independent basis, Debye):
    X=              0.1188    Y=             -0.1044    Z=              0.0571  Tot=              0.1681
 Quadrupole moment (field-independent basis, Debye-Ang):
   XX=            -31.9721   YY=            -32.2228   ZZ=            -39.1272
   XY=              0.0841   XZ=             -0.9611   YZ=             -0.2222

 Normal termination of Gaussian 16 at Fri Nov 10 22:45:58 2023.
