 Gaussian 16, Revision B.01,
 Gaussian 16:  EM64L-G16RevB.01 20-Dec-2017

 ---------------------------------
 # TD=(NStates=1) B3LYP/6-31G(d,p)
 ---------------------------------

 -------
 EMISPCT
 -------
 Symbolic Z-matrix:
 Charge =  0 Multiplicity = 1

                         Standard orientation:
 ---------------------------------------------------------------------
 Center     Atomic      Atomic             Coordinates (Angstroms)
 Number     Number       Type             X           Y           Z
 ---------------------------------------------------------------------
      1          6           0        1.472315   -0.031181   -0.009534
      2          6           0        0.687200   -1.200093   -0.012328
      3          6           0       -0.732866   -1.189505    0.001594
      4          6           0       -1.376671   -0.009243   -0.023342
      5          6           0       -0.794583    1.191875    0.011150
      6          6           0        0.707754    1.205747    0.023008
      7          1           0        2.601592    0.091729   -0.200552
      8          1           0        1.419653    2.102234    0.190336
      9          1           0       -1.233709    2.118766   -0.097287
     10          1           0       -2.487151    0.064542   -0.076479
     11          1           0       -1.311648   -2.038144    0.177126
     12          1           0        1.232364   -2.144721    0.063563
 ---------------------------------------------------------------------

 SCF Done:  E(RB3LYP) =  -232.215983566     A.U. after   13 cycles

 Excitation energies and oscillator strengths:

 Excited State   1:      Singlet-A      5.3249 eV  232.84 nm  f=0.0000  <S**2>=0.000
      20 -> 22         0.49683
      21 -> 23         0.50222
 This state for optimization and/or second-order correction.
 Total Energy, E(TD-HF/TD-DFT) =  -232.020297998
 Copying the excited state density for this state as the 1-particle RhoCI density.

 The electronic state is 1-A.
 Alpha  occ. eigenvalues --  -10.20605 -10.20116 -10.19530 -10.18866 -10.18332
 Alpha  occ. eigenvalues --  -10.18200  -0.84504  -0.74680  -0.72896  -0.60678
 Alpha  occ. eigenvalues --   -0.58391  -0.51716  -0.46027  -0.43776  -0.41829
 Alpha  occ. eigenvalues --   -0.41215  -0.36153  -0.33377  -0.32638  -0.25461
 Alpha  occ. eigenvalues --   -0.23591
 Alpha virt. eigenvalues --   -0.01316   0.00575   0.08591   0.12564   0.14633
 Alpha virt. eigenvalues --    0.15370   0.17111   0.17600   0.18914   0.26745
 Alpha virt. eigenvalues --    0.29410   0.30173   0.33384   0.45929   0.50714

 Mulliken charges:
               1
     1  C   -0.083899
     2  C   -0.105439
     3  C   -0.065492
     4  C   -0.076815
     5  C   -0.072412
     6  C   -0.117048
     7  H    0.097564
     8  H    0.081938
     9  H    0.091292
    10  H    0.079139
    11  H    0.088646
    12  H    0.082526
 Sum of Mulliken charges =  -0.00000

 Dipole moment (field-independent basis, Debye):
    X=             -0.0085    Y=              0.0454    Z=              0.0241  Tot=              0.0521
 Quadrupole moment (field-independent basis, Debye-Ang):
   XX=            -31.0784   YY=            -32.1591   ZZ=            -38.6325
   XY=              0.1753   XZ=             -0.1353   YZ=             -0.3440

 Normal termination of Gaussian 16 at Fri Nov 10 20:39:17 2023.
