 Gaussian 16, Revision B.01,
 Gaussian 16:  EM64L-G16RevB.01 20-Dec-2017

 ---------------------------------
 # TD=(NStates=1) B3LYP/6-31G(d,p)
 ---------------------------------

 -------
 EMISPCT
 -------
 Symbolic Z-matrix:
 Charge =  0 Multiplicity = 1

                         Standard orientation:
 ---------------------------------------------------------------------
 Center     Atomic      Atomic             Coordinates (Angstroms)
 Number     Number       Type             X           Y           Z
 ---------------------------------------------------------------------
      1          6           0       -0.749686    1.183718   -0.007940
      2          6           0        0.681417    1.254472   -0.032436
      3          6           0        1.544493    0.054381   -0.064779
      4          6           0        0.752000   -1.171860    0.146213
      5          6           0       -0.712793   -1.267400   -0.111526
      6          6           0       -1.448090   -0.049777    0.074175
      7          1           0       -1.457866    2.035760   -0.043412
      8          1           0       -2.585665   -0.010440    0.168007
      9          1           0       -1.264771   -2.192762   -0.230380
     10          1           0        1.295724   -2.034378   -0.053790
     11          1           0        2.647241   -0.098737    0.131923
     12          1           0        0.961293    2.279346    0.005409
 ---------------------------------------------------------------------

 SCF Done:  E(RB3LYP) =  -232.199669347     A.U. after   13 cycles

 Excitation energies and oscillator strengths:

 Excited State   1:      Singlet-A      4.8201 eV  257.22 nm  f=0.0017  <S**2>=0.000
      20 -> 22        -0.24342
      20 -> 23        -0.38649
      21 -> 22         0.46444
      21 -> 23        -0.27423
 This state for optimization and/or second-order correction.
 Total Energy, E(TD-HF/TD-DFT) =  -232.022532821
 Copying the excited state density for this state as the 1-particle RhoCI density.

 The electronic state is 1-A.
 Alpha  occ. eigenvalues --  -10.21603 -10.20413 -10.20411 -10.20075 -10.19829
 Alpha  occ. eigenvalues --  -10.19705  -0.82444  -0.73147  -0.72607  -0.60099
 Alpha  occ. eigenvalues --   -0.58432  -0.50505  -0.46606  -0.43041  -0.41279
 Alpha  occ. eigenvalues --   -0.39819  -0.35365  -0.33460  -0.32912  -0.24352
 Alpha  occ. eigenvalues --   -0.23599
 Alpha virt. eigenvalues --   -0.01839  -0.01552   0.08734   0.11347   0.13370
 Alpha virt. eigenvalues --    0.14486   0.15704   0.18164   0.18465   0.25591
 Alpha virt. eigenvalues --    0.28115   0.29308   0.29750   0.42713   0.45658

 Mulliken charges:
               1
     1  C   -0.083338
     2  C   -0.088852
     3  C   -0.105837
     4  C   -0.105910
     5  C   -0.094597
     6  C   -0.080256
     7  H    0.092005
     8  H    0.084726
     9  H    0.095982
    10  H    0.088100
    11  H    0.109522
    12  H    0.088456
 Sum of Mulliken charges =  -0.00000

 Dipole moment (field-independent basis, Debye):
    X=             -0.2063    Y=              0.0120    Z=             -0.0291  Tot=              0.2087
 Quadrupole moment (field-independent basis, Debye-Ang):
   XX=            -30.8501   YY=            -32.0671   ZZ=            -39.1439
   XY=             -0.4668   XZ=              0.2205   YZ=              0.4654

 Normal termination of Gaussian 16 at Fri Nov 10 21:24:29 2023.
