 Gaussian 16, Revision B.01,
 Gaussian 16:  EM64L-G16RevB.01 20-Dec-2017

 ---------------------------------
 # TD=(NStates=1) B3LYP/6-31G(d,p)
 ---------------------------------

 -------
 EMISPCT
 -------
 Symbolic Z-matrix:
 Charge =  0 Multiplicity = 1

                         Standard orientation:
 ---------------------------------------------------------------------
 Center     Atomic      Atomic             Coordinates (Angstroms)
 Number     Number       Type             X           Y           Z
 ---------------------------------------------------------------------
      1          6           0        1.298526    0.625971   -0.108428
      2          6           0        1.226266   -0.820006    0.038780
      3          6           0       -0.133662   -1.390313   -0.010842
      4          6           0       -1.278180   -0.645402   -0.005772
      5          6           0       -1.205466    0.803842   -0.014819
      6          6           0        0.114944    1.419175    0.005476
      7          1           0        2.430784    0.997843    0.219003
      8          1           0        0.184271    2.509045   -0.003861
      9          1           0       -2.052431    1.571155    0.258971
     10          1           0       -2.399401   -1.034768   -0.010223
     11          1           0       -0.411228   -2.471883   -0.055041
     12          1           0        2.113432   -1.530992    0.164782
 ---------------------------------------------------------------------

 SCF Done:  E(RB3LYP) =  -232.198980297     A.U. after   13 cycles

 Excitation energies and oscillator strengths:

 Excited State   1:      Singlet-A      5.0783 eV  244.14 nm  f=0.0011  <S**2>=0.000
      20 -> 22         0.49065
      21 -> 22         0.13785
      21 -> 23         0.48119
 This state for optimization and/or second-order correction.
 Total Energy, E(TD-HF/TD-DFT) =  -232.012355128
 Copying the excited state density for this state as the 1-particle RhoCI density.

 The electronic state is 1-A.
 Alpha  occ. eigenvalues --  -10.21512 -10.21472 -10.20934 -10.20579 -10.20387
 Alpha  occ. eigenvalues --  -10.20034  -0.83066  -0.73630  -0.72292  -0.59546
 Alpha  occ. eigenvalues --   -0.57890  -0.49789  -0.45601  -0.42680  -0.40648
 Alpha  occ. eigenvalues --   -0.39795  -0.35543  -0.34185  -0.31743  -0.25194
 Alpha  occ. eigenvalues --   -0.23834
 Alpha virt. eigenvalues --   -0.02072  -0.00518   0.06700   0.10951   0.11965
 Alpha virt. eigenvalues --    0.13894   0.15195   0.15713   0.16876   0.26783
 Alpha virt. eigenvalues --    0.27633   0.28893   0.31248   0.44110   0.49353

 Mulliken charges:
               1
     1  C   -0.096412
     2  C   -0.097796
     3  C   -0.084406
     4  C   -0.084391
     5  C   -0.094103
     6  C   -0.090604
     7  H    0.078483
     8  H    0.095513
     9  H    0.091170
    10  H    0.090634
    11  H    0.088008
    12  H    0.103903
 Sum of Mulliken charges =  -0.00000

 Dipole moment (field-independent basis, Debye):
    X=             -0.1081    Y=             -0.0667    Z=              0.3509  Tot=              0.3732
 Quadrupole moment (field-independent basis, Debye-Ang):
   XX=            -31.6960   YY=            -31.8766   ZZ=            -39.3162
   XY=             -0.5316   XZ=              0.3652   YZ=              0.3899

 Normal termination of Gaussian 16 at Fri Nov 10 21:27:35 2023.
