 Gaussian 16, Revision B.01,
 Gaussian 16:  EM64L-G16RevB.01 20-Dec-2017

 ---------------------------------
 # TD=(NStates=1) B3LYP/6-31G(d,p)
 ---------------------------------

 -------
 EMISPCT
 -------
 Symbolic Z-matrix:
 Charge =  0 Multiplicity = 1

                         Standard orientation:
 ---------------------------------------------------------------------
 Center     Atomic      Atomic             Coordinates (Angstroms)
 Number     Number       Type             X           Y           Z
 ---------------------------------------------------------------------
      1          6           0       -1.157983   -0.888825   -0.064076
      2          6           0       -1.377294    0.516772   -0.030847
      3          6           0       -0.180836    1.410769    0.007489
      4          6           0        1.164617    0.874459   -0.034582
      5          6           0        1.304059   -0.552266   -0.038132
      6          6           0        0.244842   -1.417254    0.094051
      7          1           0       -2.065854   -1.323662    0.003074
      8          1           0        0.345465   -2.341701    0.176288
      9          1           0        2.212462   -0.791429   -0.141943
     10          1           0        2.129330    1.302906    0.032752
     11          1           0       -0.283196    2.490944    0.322513
     12          1           0       -2.322642    1.001013    0.003900
 ---------------------------------------------------------------------

 SCF Done:  E(RB3LYP) =  -232.171154024     A.U. after   13 cycles

 Excitation energies and oscillator strengths:

 Excited State   1:      Singlet-A      5.0213 eV  246.92 nm  f=0.0001  <S**2>=0.000
      20 -> 22         0.50175
      21 -> 23         0.49511
 This state for optimization and/or second-order correction.
 Total Energy, E(TD-HF/TD-DFT) =  -231.986624282
 Copying the excited state density for this state as the 1-particle RhoCI density.

 The electronic state is 1-A.
 Alpha  occ. eigenvalues --  -10.20506 -10.19848 -10.19467 -10.19206 -10.18590
 Alpha  occ. eigenvalues --  -10.17446  -0.82846  -0.74571  -0.72714  -0.61839
 Alpha  occ. eigenvalues --   -0.59253  -0.52091  -0.48542  -0.43840  -0.41775
 Alpha  occ. eigenvalues --   -0.40654  -0.35468  -0.34436  -0.32476  -0.24482
 Alpha  occ. eigenvalues --   -0.23424
 Alpha virt. eigenvalues --   -0.01579  -0.00343   0.10801   0.12728   0.14654
 Alpha virt. eigenvalues --    0.15748   0.17883   0.18255   0.21338   0.26901
 Alpha virt. eigenvalues --    0.27435   0.29175   0.31560   0.45465   0.49242

 Mulliken charges:
               1
     1  C   -0.093982
     2  C   -0.095180
     3  C   -0.109158
     4  C   -0.085581
     5  C   -0.051295
     6  C   -0.056020
     7  H    0.088313
     8  H    0.067488
     9  H    0.065496
    10  H    0.090082
    11  H    0.083692
    12  H    0.096146
 Sum of Mulliken charges =  -0.00000

 Dipole moment (field-independent basis, Debye):
    X=              0.0725    Y=             -0.1146    Z=              0.2611  Tot=              0.2943
 Quadrupole moment (field-independent basis, Debye-Ang):
   XX=            -30.0104   YY=            -32.3932   ZZ=            -38.5543
   XY=             -0.1501   XZ=             -0.2458   YZ=              0.3842

 Normal termination of Gaussian 16 at Fri Nov 10 22:01:45 2023.
