 Gaussian 16, Revision B.01,
 Gaussian 16:  EM64L-G16RevB.01 20-Dec-2017

 ---------------------------------
 # TD=(NStates=1) B3LYP/6-31G(d,p)
 ---------------------------------

 -------
 EMISPCT
 -------
 Symbolic Z-matrix:
 Charge =  0 Multiplicity = 1

                         Standard orientation:
 ---------------------------------------------------------------------
 Center     Atomic      Atomic             Coordinates (Angstroms)
 Number     Number       Type             X           Y           Z
 ---------------------------------------------------------------------
      1          6           0       -1.480842   -0.129270   -0.072101
      2          6           0       -0.830939    1.172454    0.083431
      3          6           0        0.616972    1.297560   -0.049980
      4          6           0        1.491953    0.082931    0.005257
      5          6           0        0.809063   -1.128807   -0.054003
      6          6           0       -0.621254   -1.276518   -0.058541
      7          1           0       -2.618181   -0.194539    0.187600
      8          1           0       -0.989089   -2.327580    0.204351
      9          1           0        1.432050   -1.984945    0.251678
     10          1           0        2.426558    0.080796    0.266088
     11          1           0        1.136617    2.180703   -0.164249
     12          1           0       -1.297667    2.135462    0.130146
 ---------------------------------------------------------------------

 SCF Done:  E(RB3LYP) =  -232.199350621     A.U. after   14 cycles

 Excitation energies and oscillator strengths:

 Excited State   1:      Singlet-A      4.9038 eV  252.84 nm  f=0.0021  <S**2>=0.000
      20 -> 22         0.45866
      20 -> 23        -0.16497
      21 -> 22        -0.24350
      21 -> 23        -0.45037
 This state for optimization and/or second-order correction.
 Total Energy, E(TD-HF/TD-DFT) =  -232.019141033
 Copying the excited state density for this state as the 1-particle RhoCI density.

 The electronic state is 1-A.
 Alpha  occ. eigenvalues --  -10.21330 -10.20647 -10.20396 -10.19845 -10.19169
 Alpha  occ. eigenvalues --  -10.18618  -0.82656  -0.73732  -0.72594  -0.60186
 Alpha  occ. eigenvalues --   -0.59007  -0.50964  -0.47231  -0.42629  -0.41822
 Alpha  occ. eigenvalues --   -0.40674  -0.35056  -0.33981  -0.32854  -0.24558
 Alpha  occ. eigenvalues --   -0.23448
 Alpha virt. eigenvalues --   -0.02076  -0.00717   0.08767   0.11570   0.14182
 Alpha virt. eigenvalues --    0.15124   0.16156   0.17163   0.20676   0.26957
 Alpha virt. eigenvalues --    0.27907   0.28587   0.30836   0.46824   0.47570

 Mulliken charges:
               1
     1  C   -0.102935
     2  C   -0.087684
     3  C   -0.102132
     4  C   -0.064474
     5  C   -0.086903
     6  C   -0.091343
     7  H    0.093773
     8  H    0.093514
     9  H    0.079475
    10  H    0.084732
    11  H    0.089477
    12  H    0.094499
 Sum of Mulliken charges =  -0.00000

 Dipole moment (field-independent basis, Debye):
    X=              0.1901    Y=              0.1174    Z=              0.5497  Tot=              0.5934
 Quadrupole moment (field-independent basis, Debye-Ang):
   XX=            -31.3840   YY=            -31.7744   ZZ=            -38.8017
   XY=              0.0780   XZ=             -0.0111   YZ=             -0.8608

 Normal termination of Gaussian 16 at Fri Nov 10 19:41:30 2023.
