 Gaussian 16, Revision B.01,
 Gaussian 16:  EM64L-G16RevB.01 20-Dec-2017

 ---------------------------------
 # TD=(NStates=1) B3LYP/6-31G(d,p)
 ---------------------------------

 -------
 EMISPCT
 -------
 Symbolic Z-matrix:
 Charge =  0 Multiplicity = 1

                         Standard orientation:
 ---------------------------------------------------------------------
 Center     Atomic      Atomic             Coordinates (Angstroms)
 Number     Number       Type             X           Y           Z
 ---------------------------------------------------------------------
      1          6           0        0.551902   -1.342914    0.008866
      2          6           0       -0.843042   -1.031482   -0.050189
      3          6           0       -1.496163    0.202653    0.070812
      4          6           0       -0.541121    1.312730   -0.034894
      5          6           0        0.933059    1.169908   -0.082849
      6          6           0        1.465702   -0.258993   -0.004576
      7          1           0        0.874291   -2.228953   -0.045830
      8          1           0        2.408026   -0.372494    0.424125
      9          1           0        1.597953    1.869191   -0.001399
     10          1           0       -1.007240    2.269344    0.187166
     11          1           0       -2.550631    0.051029    0.073953
     12          1           0       -1.744427   -1.899530   -0.081038
 ---------------------------------------------------------------------

 SCF Done:  E(RB3LYP) =  -232.157840140     A.U. after   13 cycles

 Excitation energies and oscillator strengths:

 Excited State   1:      Singlet-A      4.8609 eV  255.06 nm  f=0.0012  <S**2>=0.000
      20 -> 22         0.33482
      20 -> 23         0.35720
      21 -> 22         0.40580
      21 -> 23        -0.30867
 This state for optimization and/or second-order correction.
 Total Energy, E(TD-HF/TD-DFT) =  -231.979205688
 Copying the excited state density for this state as the 1-particle RhoCI density.

 The electronic state is 1-A.
 Alpha  occ. eigenvalues --  -10.21158 -10.20512 -10.20256 -10.19998 -10.19770
 Alpha  occ. eigenvalues --  -10.18500  -0.82722  -0.74216  -0.72756  -0.60942
 Alpha  occ. eigenvalues --   -0.59314  -0.52550  -0.46559  -0.43758  -0.42794
 Alpha  occ. eigenvalues --   -0.40288  -0.35752  -0.33682  -0.31476  -0.24238
 Alpha  occ. eigenvalues --   -0.23833
 Alpha virt. eigenvalues --   -0.01932  -0.01315   0.07743   0.12025   0.14488
 Alpha virt. eigenvalues --    0.15901   0.16142   0.18372   0.19588   0.24773
 Alpha virt. eigenvalues --    0.26446   0.30114   0.32051   0.43522   0.44419

 Mulliken charges:
               1
     1  C   -0.049680
     2  C   -0.077913
     3  C   -0.068608
     4  C   -0.114892
     5  C   -0.073964
     6  C   -0.118366
     7  H    0.077998
     8  H    0.099535
     9  H    0.086159
    10  H    0.088081
    11  H    0.106332
    12  H    0.045318
 Sum of Mulliken charges =  -0.00000

 Dipole moment (field-independent basis, Debye):
    X=              0.0717    Y=              0.0397    Z=              0.3829  Tot=              0.3916
 Quadrupole moment (field-independent basis, Debye-Ang):
   XX=            -30.5521   YY=            -32.7217   ZZ=            -38.7675
   XY=              0.1318   XZ=              0.6098   YZ=              0.3924

 Normal termination of Gaussian 16 at Fri Nov 10 21:10:04 2023.
