 Gaussian 16, Revision B.01,
 Gaussian 16:  EM64L-G16RevB.01 20-Dec-2017

 ---------------------------------
 # TD=(NStates=1) B3LYP/6-31G(d,p)
 ---------------------------------

 -------
 EMISPCT
 -------
 Symbolic Z-matrix:
 Charge =  0 Multiplicity = 1

                         Standard orientation:
 ---------------------------------------------------------------------
 Center     Atomic      Atomic             Coordinates (Angstroms)
 Number     Number       Type             X           Y           Z
 ---------------------------------------------------------------------
      1          6           0        1.265427    0.812581   -0.050208
      2          6           0        1.272246   -0.673232   -0.032601
      3          6           0        0.049738   -1.423502    0.078283
      4          6           0       -1.193992   -0.799101   -0.085227
      5          6           0       -1.300114    0.657208   -0.037937
      6          6           0       -0.066408    1.411000    0.027553
      7          1           0        2.298371    1.165505    0.015974
      8          1           0       -0.360393    2.594615    0.174268
      9          1           0       -2.238578    1.277618    0.118831
     10          1           0       -2.202963   -1.432943    0.157803
     11          1           0        0.129870   -2.445870   -0.026208
     12          1           0        2.212314   -1.068657    0.160163
 ---------------------------------------------------------------------

 SCF Done:  E(RB3LYP) =  -232.193218344     A.U. after   13 cycles

 Excitation energies and oscillator strengths:

 Excited State   1:      Singlet-A      4.9793 eV  249.00 nm  f=0.0012  <S**2>=0.000
      20 -> 22         0.48496
      20 -> 23         0.15691
      21 -> 22        -0.20998
      21 -> 23         0.44242
 This state for optimization and/or second-order correction.
 Total Energy, E(TD-HF/TD-DFT) =  -232.010230631
 Copying the excited state density for this state as the 1-particle RhoCI density.

 The electronic state is 1-A.
 Alpha  occ. eigenvalues --  -10.21935 -10.21179 -10.21131 -10.20895 -10.19755
 Alpha  occ. eigenvalues --  -10.19203  -0.82669  -0.73133  -0.72883  -0.59364
 Alpha  occ. eigenvalues --   -0.58948  -0.50554  -0.45767  -0.43461  -0.40839
 Alpha  occ. eigenvalues --   -0.39971  -0.35089  -0.34600  -0.31786  -0.24624
 Alpha  occ. eigenvalues --   -0.24019
 Alpha virt. eigenvalues --   -0.02061  -0.00855   0.06990   0.11237   0.12460
 Alpha virt. eigenvalues --    0.12996   0.16248   0.16887   0.19211   0.25190
 Alpha virt. eigenvalues --    0.27409   0.29207   0.30527   0.45302   0.46944

 Mulliken charges:
               1
     1  C   -0.093090
     2  C   -0.102403
     3  C   -0.072545
     4  C   -0.097556
     5  C   -0.086538
     6  C   -0.088238
     7  H    0.102666
     8  H    0.073377
     9  H    0.100451
    10  H    0.079061
    11  H    0.093250
    12  H    0.091564
 Sum of Mulliken charges =  -0.00000

 Dipole moment (field-independent basis, Debye):
    X=              0.1650    Y=             -0.0691    Z=              0.3574  Tot=              0.3997
 Quadrupole moment (field-independent basis, Debye-Ang):
   XX=            -30.8108   YY=            -32.5256   ZZ=            -39.2669
   XY=             -0.7552   XZ=             -0.2088   YZ=              0.2134

 Normal termination of Gaussian 16 at Fri Nov 10 22:45:55 2023.
