 Gaussian 16, Revision B.01,
 Gaussian 16:  EM64L-G16RevB.01 20-Dec-2017

 ---------------------------------
 # TD=(NStates=1) B3LYP/6-31G(d,p)
 ---------------------------------

 -------
 EMISPCT
 -------
 Symbolic Z-matrix:
 Charge =  0 Multiplicity = 1

                         Standard orientation:
 ---------------------------------------------------------------------
 Center     Atomic      Atomic             Coordinates (Angstroms)
 Number     Number       Type             X           Y           Z
 ---------------------------------------------------------------------
      1          6           0       -1.195230   -0.735956   -0.023002
      2          6           0        0.026807   -1.428147   -0.033254
      3          6           0        1.269323   -0.728223    0.023754
      4          6           0        1.236098    0.787467   -0.069482
      5          6           0       -0.080866    1.431021    0.061800
      6          6           0       -1.258970    0.633526    0.026812
      7          1           0       -2.185239   -1.076440   -0.095392
      8          1           0       -2.205050    1.175791    0.070492
      9          1           0       -0.024741    2.488817    0.040287
     10          1           0        2.177409    1.429255   -0.331442
     11          1           0        2.323137   -1.225590    0.461665
     12          1           0       -0.068494   -2.549959   -0.065377
 ---------------------------------------------------------------------

 SCF Done:  E(RB3LYP) =  -232.201051370     A.U. after   13 cycles

 Excitation energies and oscillator strengths:

 Excited State   1:      Singlet-A      4.9553 eV  250.20 nm  f=0.0002  <S**2>=0.000
      20 -> 22         0.51048
      21 -> 23        -0.47926
 This state for optimization and/or second-order correction.
 Total Energy, E(TD-HF/TD-DFT) =  -232.018946406
 Copying the excited state density for this state as the 1-particle RhoCI density.

 The electronic state is 1-A.
 Alpha  occ. eigenvalues --  -10.22083 -10.21554 -10.20358 -10.19605 -10.19037
 Alpha  occ. eigenvalues --  -10.18554  -0.83311  -0.73201  -0.72885  -0.59466
 Alpha  occ. eigenvalues --   -0.58708  -0.50543  -0.46326  -0.42759  -0.41145
 Alpha  occ. eigenvalues --   -0.40185  -0.35823  -0.33755  -0.32658  -0.24346
 Alpha  occ. eigenvalues --   -0.23652
 Alpha virt. eigenvalues --   -0.01743  -0.00694   0.07825   0.11678   0.12985
 Alpha virt. eigenvalues --    0.14775   0.14825   0.16971   0.18971   0.26183
 Alpha virt. eigenvalues --    0.28218   0.29590   0.31569   0.46128   0.49569

 Mulliken charges:
               1
     1  C   -0.058398
     2  C   -0.095075
     3  C   -0.107175
     4  C   -0.114015
     5  C   -0.080466
     6  C   -0.089656
     7  H    0.087695
     8  H    0.088034
     9  H    0.088776
    10  H    0.097126
    11  H    0.090215
    12  H    0.092940
 Sum of Mulliken charges =  -0.00000

 Dipole moment (field-independent basis, Debye):
    X=             -0.1911    Y=              0.1942    Z=              0.0363  Tot=              0.2749
 Quadrupole moment (field-independent basis, Debye-Ang):
   XX=            -31.4297   YY=            -31.8451   ZZ=            -38.9249
   XY=              0.3741   XZ=              0.3266   YZ=             -0.4799

 Normal termination of Gaussian 16 at Fri Nov 10 22:50:26 2023.
