 Gaussian 16, Revision B.01,
 Gaussian 16:  EM64L-G16RevB.01 20-Dec-2017

 ---------------------------------
 # TD=(NStates=1) B3LYP/6-31G(d,p)
 ---------------------------------

 -------
 EMISPCT
 -------
 Symbolic Z-matrix:
 Charge =  0 Multiplicity = 1

                         Standard orientation:
 ---------------------------------------------------------------------
 Center     Atomic      Atomic             Coordinates (Angstroms)
 Number     Number       Type             X           Y           Z
 ---------------------------------------------------------------------
      1          6           0        1.438883   -0.064390    0.032413
      2          6           0        0.611290   -1.294924   -0.068378
      3          6           0       -0.830172   -1.185178   -0.077341
      4          6           0       -1.450929    0.077144    0.124690
      5          6           0       -0.591076    1.265024   -0.068916
      6          6           0        0.815339    1.163613   -0.001403
      7          1           0        2.571592   -0.265948    0.325428
      8          1           0        1.139446    2.118109   -0.173038
      9          1           0       -0.992426    2.304168   -0.014933
     10          1           0       -2.490499    0.206366    0.157389
     11          1           0       -1.613697   -1.917164   -0.028745
     12          1           0        1.425568   -2.213268    0.087508
 ---------------------------------------------------------------------

 SCF Done:  E(RB3LYP) =  -232.186999536     A.U. after   13 cycles

 Excitation energies and oscillator strengths:

 Excited State   1:      Singlet-A      5.0519 eV  245.42 nm  f=0.0005  <S**2>=0.000
      20 -> 22         0.48160
      21 -> 23         0.51078
 This state for optimization and/or second-order correction.
 Total Energy, E(TD-HF/TD-DFT) =  -232.001344622
 Copying the excited state density for this state as the 1-particle RhoCI density.

 The electronic state is 1-A.
 Alpha  occ. eigenvalues --  -10.22037 -10.20844 -10.20442 -10.19751 -10.19680
 Alpha  occ. eigenvalues --  -10.18451  -0.83277  -0.74574  -0.72163  -0.59705
 Alpha  occ. eigenvalues --   -0.59142  -0.51045  -0.46107  -0.43455  -0.41822
 Alpha  occ. eigenvalues --   -0.39064  -0.35468  -0.34243  -0.31728  -0.25155
 Alpha  occ. eigenvalues --   -0.23526
 Alpha virt. eigenvalues --   -0.01877  -0.00536   0.06959   0.11444   0.12884
 Alpha virt. eigenvalues --    0.13791   0.15450   0.18010   0.20036   0.25247
 Alpha virt. eigenvalues --    0.28348   0.29995   0.31578   0.46342   0.47032

 Mulliken charges:
               1
     1  C   -0.102503
     2  C   -0.091843
     3  C   -0.095792
     4  C   -0.087392
     5  C   -0.111782
     6  C   -0.047907
     7  H    0.088737
     8  H    0.087690
     9  H    0.083287
    10  H    0.093347
    11  H    0.095466
    12  H    0.088691
 Sum of Mulliken charges =  -0.00000

 Dipole moment (field-independent basis, Debye):
    X=             -0.1845    Y=              0.1998    Z=              0.2094  Tot=              0.3432
 Quadrupole moment (field-independent basis, Debye-Ang):
   XX=            -31.0805   YY=            -32.3314   ZZ=            -39.0107
   XY=             -0.3646   XZ=              0.3445   YZ=             -0.4729

 Normal termination of Gaussian 16 at Fri Nov 10 22:12:58 2023.
