 Gaussian 16, Revision B.01,
 Gaussian 16:  EM64L-G16RevB.01 20-Dec-2017

 ---------------------------------
 # TD=(NStates=1) B3LYP/6-31G(d,p)
 ---------------------------------

 -------
 EMISPCT
 -------
 Symbolic Z-matrix:
 Charge =  0 Multiplicity = 1

                         Standard orientation:
 ---------------------------------------------------------------------
 Center     Atomic      Atomic             Coordinates (Angstroms)
 Number     Number       Type             X           Y           Z
 ---------------------------------------------------------------------
      1          6           0       -1.429283    0.094429    0.156720
      2          6           0       -0.770858   -1.195840   -0.072518
      3          6           0        0.625777   -1.274688   -0.064774
      4          6           0        1.427633   -0.144084   -0.051059
      5          6           0        0.788394    1.188655    0.026464
      6          6           0       -0.617742    1.345371   -0.063742
      7          1           0       -2.522777    0.048836    0.196010
      8          1           0       -1.043508    2.297462   -0.388186
      9          1           0        1.523386    1.919559    0.228135
     10          1           0        2.487764   -0.100375    0.255143
     11          1           0        1.075502   -2.394750    0.233052
     12          1           0       -1.663900   -1.853791   -0.110700
 ---------------------------------------------------------------------

 SCF Done:  E(RB3LYP) =  -232.183256433     A.U. after   14 cycles

 Excitation energies and oscillator strengths:

 Excited State   1:      Singlet-A      4.6420 eV  267.09 nm  f=0.0048  <S**2>=0.000
      20 -> 23        -0.39082
      21 -> 22         0.58238
 This state for optimization and/or second-order correction.
 Total Energy, E(TD-HF/TD-DFT) =  -232.012666717
 Copying the excited state density for this state as the 1-particle RhoCI density.

 The electronic state is 1-A.
 Alpha  occ. eigenvalues --  -10.21014 -10.20776 -10.20744 -10.20108 -10.19825
 Alpha  occ. eigenvalues --  -10.19625  -0.82978  -0.73443  -0.72817  -0.60022
 Alpha  occ. eigenvalues --   -0.58653  -0.49984  -0.46481  -0.44132  -0.41385
 Alpha  occ. eigenvalues --   -0.39205  -0.35456  -0.33961  -0.32524  -0.23854
 Alpha  occ. eigenvalues --   -0.23254
 Alpha virt. eigenvalues --   -0.02185  -0.01176   0.07234   0.11645   0.12403
 Alpha virt. eigenvalues --    0.13947   0.15520   0.17942   0.19007   0.25988
 Alpha virt. eigenvalues --    0.27837   0.29157   0.31937   0.46087   0.46732

 Mulliken charges:
               1
     1  C   -0.111912
     2  C   -0.072927
     3  C   -0.090924
     4  C   -0.091660
     5  C   -0.087879
     6  C   -0.098018
     7  H    0.091994
     8  H    0.100510
     9  H    0.091491
    10  H    0.094249
    11  H    0.075375
    12  H    0.099700
 Sum of Mulliken charges =  -0.00000

 Dipole moment (field-independent basis, Debye):
    X=             -0.2195    Y=              0.2049    Z=              0.2096  Tot=              0.3662
 Quadrupole moment (field-independent basis, Debye-Ang):
   XX=            -30.9523   YY=            -32.8099   ZZ=            -38.8616
   XY=              0.8403   XZ=              1.1571   YZ=             -0.6324

 Normal termination of Gaussian 16 at Fri Nov 10 19:48:34 2023.
