 Gaussian 16, Revision B.01,
 Gaussian 16:  EM64L-G16RevB.01 20-Dec-2017

 ---------------------------------
 # TD=(NStates=1) B3LYP/6-31G(d,p)
 ---------------------------------

 -------
 EMISPCT
 -------
 Symbolic Z-matrix:
 Charge =  0 Multiplicity = 1

                         Standard orientation:
 ---------------------------------------------------------------------
 Center     Atomic      Atomic             Coordinates (Angstroms)
 Number     Number       Type             X           Y           Z
 ---------------------------------------------------------------------
      1          6           0       -1.338235    0.545222   -0.055108
      2          6           0       -0.217704    1.414010   -0.029138
      3          6           0        1.155138    0.852603   -0.042760
      4          6           0        1.322711   -0.538395    0.020055
      5          6           0        0.209454   -1.408489    0.062644
      6          6           0       -1.143120   -0.894545   -0.018353
      7          1           0       -2.425850    1.004905    0.249789
      8          1           0       -2.049638   -1.522615    0.090170
      9          1           0        0.325586   -2.491067   -0.227894
     10          1           0        2.409140   -0.819009    0.013303
     11          1           0        2.019654    1.417729    0.151334
     12          1           0       -0.208355    2.587617    0.099255
 ---------------------------------------------------------------------

 SCF Done:  E(RB3LYP) =  -232.212283783     A.U. after   13 cycles

 Excitation energies and oscillator strengths:

 Excited State   1:      Singlet-A      5.0464 eV  245.69 nm  f=0.0001  <S**2>=0.000
      20 -> 22         0.49943
      21 -> 23         0.49190
 This state for optimization and/or second-order correction.
 Total Energy, E(TD-HF/TD-DFT) =  -232.026832471
 Copying the excited state density for this state as the 1-particle RhoCI density.

 The electronic state is 1-A.
 Alpha  occ. eigenvalues --  -10.21325 -10.21278 -10.20720 -10.20316 -10.19777
 Alpha  occ. eigenvalues --  -10.19374  -0.83066  -0.73586  -0.72576  -0.59774
 Alpha  occ. eigenvalues --   -0.58266  -0.49935  -0.45735  -0.43386  -0.40780
 Alpha  occ. eigenvalues --   -0.40279  -0.35652  -0.34322  -0.32018  -0.24888
 Alpha  occ. eigenvalues --   -0.23917
 Alpha virt. eigenvalues --   -0.01879  -0.00719   0.07479   0.11463   0.13071
 Alpha virt. eigenvalues --    0.13299   0.15933   0.16369   0.18871   0.26662
 Alpha virt. eigenvalues --    0.28160   0.29142   0.31013   0.47060   0.48962

 Mulliken charges:
               1
     1  C   -0.091768
     2  C   -0.091117
     3  C   -0.082594
     4  C   -0.081834
     5  C   -0.098527
     6  C   -0.098695
     7  H    0.083335
     8  H    0.099591
     9  H    0.091747
    10  H    0.089405
    11  H    0.090403
    12  H    0.090055
 Sum of Mulliken charges =  -0.00000

 Dipole moment (field-independent basis, Debye):
    X=              0.1504    Y=              0.0688    Z=              0.2249  Tot=              0.2791
 Quadrupole moment (field-independent basis, Debye-Ang):
   XX=            -31.2728   YY=            -32.2513   ZZ=            -39.1149
   XY=              0.6998   XZ=             -0.4175   YZ=              0.9663

 Normal termination of Gaussian 16 at Fri Nov 10 21:53:34 2023.
