 Gaussian 16, Revision B.01,
 Gaussian 16:  EM64L-G16RevB.01 20-Dec-2017

 ---------------------------------
 # TD=(NStates=1) B3LYP/6-31G(d,p)
 ---------------------------------

 -------
 EMISPCT
 -------
 Symbolic Z-matrix:
 Charge =  0 Multiplicity = 1

                         Standard orientation:
 ---------------------------------------------------------------------
 Center     Atomic      Atomic             Coordinates (Angstroms)
 Number     Number       Type             X           Y           Z
 ---------------------------------------------------------------------
      1          6           0       -0.167973    1.394282   -0.047042
      2          6           0       -1.377159    0.605654   -0.084136
      3          6           0       -1.145351   -0.880853    0.039668
      4          6           0        0.139407   -1.353473    0.013591
      5          6           0        1.378789   -0.567702   -0.043632
      6          6           0        1.194341    0.840971    0.032434
      7          1           0       -0.410814    2.470206    0.019728
      8          1           0        2.139690    1.647865    0.243396
      9          1           0        2.337802   -1.159963    0.006649
     10          1           0        0.344309   -2.452344   -0.095785
     11          1           0       -2.067294   -1.532490    0.110141
     12          1           0       -2.476018    0.793456    0.250571
 ---------------------------------------------------------------------

 SCF Done:  E(RB3LYP) =  -232.193975514     A.U. after   13 cycles

 Excitation energies and oscillator strengths:

 Excited State   1:      Singlet-A      4.9960 eV  248.17 nm  f=0.0053  <S**2>=0.000
      20 -> 22         0.55447
      21 -> 23         0.42490
 This state for optimization and/or second-order correction.
 Total Energy, E(TD-HF/TD-DFT) =  -232.010377428
 Copying the excited state density for this state as the 1-particle RhoCI density.

 The electronic state is 1-A.
 Alpha  occ. eigenvalues --  -10.22414 -10.21214 -10.21068 -10.21062 -10.20010
 Alpha  occ. eigenvalues --  -10.19663  -0.82652  -0.72828  -0.72713  -0.58970
 Alpha  occ. eigenvalues --   -0.58467  -0.49746  -0.45407  -0.42999  -0.40929
 Alpha  occ. eigenvalues --   -0.39839  -0.35060  -0.34582  -0.31200  -0.24477
 Alpha  occ. eigenvalues --   -0.24214
 Alpha virt. eigenvalues --   -0.02296  -0.00420   0.06667   0.10975   0.11065
 Alpha virt. eigenvalues --    0.13844   0.15162   0.16456   0.17802   0.24979
 Alpha virt. eigenvalues --    0.26900   0.28398   0.32454   0.46407   0.47859

 Mulliken charges:
               1
     1  C   -0.104206
     2  C   -0.102331
     3  C   -0.095745
     4  C   -0.076690
     5  C   -0.092001
     6  C   -0.083815
     7  H    0.095248
     8  H    0.082418
     9  H    0.103656
    10  H    0.078361
    11  H    0.090687
    12  H    0.104417
 Sum of Mulliken charges =  -0.00000

 Dipole moment (field-independent basis, Debye):
    X=             -0.0239    Y=             -0.1444    Z=              0.3396  Tot=              0.3698
 Quadrupole moment (field-independent basis, Debye-Ang):
   XX=            -30.9041   YY=            -32.4370   ZZ=            -39.3733
   XY=             -0.2729   XZ=             -0.3930   YZ=              0.5570

 Normal termination of Gaussian 16 at Fri Nov 10 19:52:47 2023.
