 Gaussian 16, Revision B.01,
 Gaussian 16:  EM64L-G16RevB.01 20-Dec-2017

 ---------------------------------
 # TD=(NStates=1) B3LYP/6-31G(d,p)
 ---------------------------------

 -------
 EMISPCT
 -------
 Symbolic Z-matrix:
 Charge =  0 Multiplicity = 1

                         Standard orientation:
 ---------------------------------------------------------------------
 Center     Atomic      Atomic             Coordinates (Angstroms)
 Number     Number       Type             X           Y           Z
 ---------------------------------------------------------------------
      1          6           0        0.966952    1.045380    0.021089
      2          6           0       -0.383850    1.338326    0.016814
      3          6           0       -1.395156    0.300503    0.022716
      4          6           0       -0.997267   -0.990241   -0.063394
      5          6           0        0.426868   -1.325556    0.036076
      6          6           0        1.421983   -0.339492   -0.066836
      7          1           0        1.770294    1.699900   -0.019815
      8          1           0        2.512471   -0.675282   -0.053450
      9          1           0        0.670421   -2.325565    0.325747
     10          1           0       -1.889391   -1.679274   -0.074251
     11          1           0       -2.470363    0.424458   -0.021240
     12          1           0       -0.830607    2.382233    0.044223
 ---------------------------------------------------------------------

 SCF Done:  E(RB3LYP) =  -232.224046915     A.U. after   13 cycles

 Excitation energies and oscillator strengths:

 Excited State   1:      Singlet-A      5.2638 eV  235.54 nm  f=0.0010  <S**2>=0.000
      20 -> 22        -0.46373
      21 -> 22         0.11941
      21 -> 23         0.51309
 This state for optimization and/or second-order correction.
 Total Energy, E(TD-HF/TD-DFT) =  -232.030605281
 Copying the excited state density for this state as the 1-particle RhoCI density.

 The electronic state is 1-A.
 Alpha  occ. eigenvalues --  -10.20181 -10.19960 -10.19443 -10.19311 -10.19182
 Alpha  occ. eigenvalues --  -10.18721  -0.83798  -0.74378  -0.72913  -0.60244
 Alpha  occ. eigenvalues --   -0.58601  -0.51118  -0.45878  -0.44220  -0.41475
 Alpha  occ. eigenvalues --   -0.40366  -0.35560  -0.34547  -0.32574  -0.24927
 Alpha  occ. eigenvalues --   -0.23784
 Alpha virt. eigenvalues --   -0.00743  -0.00050   0.08407   0.13086   0.13787
 Alpha virt. eigenvalues --    0.14660   0.16614   0.17973   0.19053   0.27618
 Alpha virt. eigenvalues --    0.28880   0.30548   0.32283   0.46659   0.49124

 Mulliken charges:
               1
     1  C   -0.083133
     2  C   -0.090893
     3  C   -0.076736
     4  C   -0.083596
     5  C   -0.093357
     6  C   -0.101601
     7  H    0.090138
     8  H    0.094505
     9  H    0.089134
    10  H    0.082616
    11  H    0.088654
    12  H    0.084269
 Sum of Mulliken charges =  -0.00000

 Dipole moment (field-independent basis, Debye):
    X=             -0.0342    Y=             -0.0661    Z=              0.1335  Tot=              0.1529
 Quadrupole moment (field-independent basis, Debye-Ang):
   XX=            -30.3778   YY=            -32.7220   ZZ=            -38.7531
   XY=             -0.0101   XZ=              0.1567   YZ=             -0.4732

 Normal termination of Gaussian 16 at Fri Nov 10 21:38:55 2023.
