 Gaussian 16, Revision B.01,
 Gaussian 16:  EM64L-G16RevB.01 20-Dec-2017

 ---------------------------------
 # TD=(NStates=1) B3LYP/6-31G(d,p)
 ---------------------------------

 -------
 EMISPCT
 -------
 Symbolic Z-matrix:
 Charge =  0 Multiplicity = 1

                         Standard orientation:
 ---------------------------------------------------------------------
 Center     Atomic      Atomic             Coordinates (Angstroms)
 Number     Number       Type             X           Y           Z
 ---------------------------------------------------------------------
      1          6           0        0.990745    1.030119   -0.131050
      2          6           0        1.420300   -0.298558    0.053630
      3          6           0        0.432960   -1.337205   -0.033794
      4          6           0       -0.994842   -1.068782   -0.036105
      5          6           0       -1.411770    0.296248    0.016548
      6          6           0       -0.425795    1.385357    0.110109
      7          1           0        1.690584    1.818540   -0.359855
      8          1           0       -0.728295    2.328283    0.237419
      9          1           0       -2.744526    0.540154   -0.223352
     10          1           0       -1.631888   -1.886416    0.104440
     11          1           0        0.910058   -2.303591   -0.042704
     12          1           0        2.434480   -0.540046    0.408024
 ---------------------------------------------------------------------

 SCF Done:  E(RB3LYP) =  -232.176414223     A.U. after   13 cycles

 Excitation energies and oscillator strengths:

 Excited State   1:      Singlet-A      4.6539 eV  266.41 nm  f=0.0006  <S**2>=0.000
      20 -> 22         0.43063
      20 -> 23        -0.26259
      21 -> 22        -0.31031
      21 -> 23        -0.38567
 This state for optimization and/or second-order correction.
 Total Energy, E(TD-HF/TD-DFT) =  -232.005388055
 Copying the excited state density for this state as the 1-particle RhoCI density.

 The electronic state is 1-A.
 Alpha  occ. eigenvalues --  -10.22528 -10.20257 -10.20106 -10.19765 -10.19713
 Alpha  occ. eigenvalues --  -10.19658  -0.82744  -0.73326  -0.72745  -0.60492
 Alpha  occ. eigenvalues --   -0.58071  -0.50902  -0.46917  -0.42354  -0.41837
 Alpha  occ. eigenvalues --   -0.40570  -0.34999  -0.33849  -0.33437  -0.23465
 Alpha  occ. eigenvalues --   -0.23232
 Alpha virt. eigenvalues --   -0.01886  -0.01317   0.05376   0.10833   0.13447
 Alpha virt. eigenvalues --    0.15405   0.16468   0.17628   0.18388   0.26669
 Alpha virt. eigenvalues --    0.27993   0.29818   0.30792   0.45739   0.47104

 Mulliken charges:
               1
     1  C   -0.095143
     2  C   -0.091904
     3  C   -0.093460
     4  C   -0.077797
     5  C   -0.087006
     6  C   -0.083442
     7  H    0.092443
     8  H    0.092687
     9  H    0.056933
    10  H    0.097961
    11  H    0.087910
    12  H    0.100819
 Sum of Mulliken charges =  -0.00000

 Dipole moment (field-independent basis, Debye):
    X=              0.3532    Y=              0.0302    Z=              0.1282  Tot=              0.3770
 Quadrupole moment (field-independent basis, Debye-Ang):
   XX=            -31.8963   YY=            -31.4782   ZZ=            -38.8689
   XY=              0.0521   XZ=              0.4194   YZ=             -0.3986

 Normal termination of Gaussian 16 at Fri Nov 10 21:59:19 2023.
