 Gaussian 16, Revision B.01,
 Gaussian 16:  EM64L-G16RevB.01 20-Dec-2017

 ---------------------------------
 # TD=(NStates=1) B3LYP/6-31G(d,p)
 ---------------------------------

 -------
 EMISPCT
 -------
 Symbolic Z-matrix:
 Charge =  0 Multiplicity = 1

                         Standard orientation:
 ---------------------------------------------------------------------
 Center     Atomic      Atomic             Coordinates (Angstroms)
 Number     Number       Type             X           Y           Z
 ---------------------------------------------------------------------
      1          6           0       -1.081624    0.977811    0.067166
      2          6           0        0.412508    1.386308    0.001156
      3          6           0        1.420894    0.356948   -0.056457
      4          6           0        1.070566   -1.031045   -0.014159
      5          6           0       -0.357408   -1.322929    0.017793
      6          6           0       -1.376500   -0.366644   -0.040299
      7          1           0       -1.846950    1.707712   -0.150009
      8          1           0       -2.510327   -0.710429   -0.002164
      9          1           0       -0.755765   -2.489595    0.007806
     10          1           0        1.702488   -1.873858    0.158474
     11          1           0        2.363502    0.850808    0.051259
     12          1           0        0.516436    2.512672    0.083437
 ---------------------------------------------------------------------

 SCF Done:  E(RB3LYP) =  -232.201216385     A.U. after   13 cycles

 Excitation energies and oscillator strengths:

 Excited State   1:      Singlet-A      5.0615 eV  244.96 nm  f=0.0045  <S**2>=0.000
      20 -> 22        -0.46444
      20 -> 23        -0.11290
      21 -> 22        -0.22637
      21 -> 23         0.46891
 This state for optimization and/or second-order correction.
 Total Energy, E(TD-HF/TD-DFT) =  -232.015211042
 Copying the excited state density for this state as the 1-particle RhoCI density.

 The electronic state is 1-A.
 Alpha  occ. eigenvalues --  -10.21172 -10.20937 -10.20749 -10.20491 -10.19927
 Alpha  occ. eigenvalues --  -10.19849  -0.82903  -0.74189  -0.71897  -0.60220
 Alpha  occ. eigenvalues --   -0.58031  -0.50259  -0.45872  -0.43774  -0.41502
 Alpha  occ. eigenvalues --   -0.39293  -0.35091  -0.34440  -0.31843  -0.25441
 Alpha  occ. eigenvalues --   -0.23293
 Alpha virt. eigenvalues --   -0.02229  -0.00116   0.07066   0.12368   0.12974
 Alpha virt. eigenvalues --    0.13840   0.16083   0.16553   0.17274   0.24888
 Alpha virt. eigenvalues --    0.26946   0.30594   0.31057   0.46190   0.48078

 Mulliken charges:
               1
     1  C   -0.100074
     2  C   -0.113609
     3  C   -0.088568
     4  C   -0.089068
     5  C   -0.088997
     6  C   -0.065679
     7  H    0.093499
     8  H    0.082286
     9  H    0.070839
    10  H    0.103525
    11  H    0.097254
    12  H    0.098593
 Sum of Mulliken charges =  -0.00000

 Dipole moment (field-independent basis, Debye):
    X=              0.0010    Y=              0.1216    Z=              0.0993  Tot=              0.1570
 Quadrupole moment (field-independent basis, Debye-Ang):
   XX=            -31.8434   YY=            -31.3246   ZZ=            -39.2509
   XY=             -0.1460   XZ=              0.6121   YZ=             -0.2824

 Normal termination of Gaussian 16 at Fri Nov 10 20:14:09 2023.
