 Gaussian 16, Revision B.01,
 Gaussian 16:  EM64L-G16RevB.01 20-Dec-2017

 ---------------------------------
 # TD=(NStates=1) B3LYP/6-31G(d,p)
 ---------------------------------

 -------
 EMISPCT
 -------
 Symbolic Z-matrix:
 Charge =  0 Multiplicity = 1

                         Standard orientation:
 ---------------------------------------------------------------------
 Center     Atomic      Atomic             Coordinates (Angstroms)
 Number     Number       Type             X           Y           Z
 ---------------------------------------------------------------------
      1          6           0       -0.664327    1.211706   -0.103925
      2          6           0        0.765602    1.167624    0.000338
      3          6           0        1.467526   -0.045361    0.014084
      4          6           0        0.679611   -1.210608   -0.096450
      5          6           0       -0.731936   -1.192946    0.066860
      6          6           0       -1.488397    0.046722   -0.003308
      7          1           0       -1.156139    2.309024    0.149405
      8          1           0       -2.572191   -0.008695   -0.247972
      9          1           0       -1.272687   -2.160043    0.394062
     10          1           0        1.142604   -2.239028    0.106943
     11          1           0        2.579620   -0.031187   -0.229229
     12          1           0        1.110332    2.267112    0.561193
 ---------------------------------------------------------------------

 SCF Done:  E(RB3LYP) =  -232.181882226     A.U. after   13 cycles

 Excitation energies and oscillator strengths:

 Excited State   1:      Singlet-A      4.8310 eV  256.64 nm  f=0.0088  <S**2>=0.000
      20 -> 22        -0.23881
      20 -> 23        -0.32348
      21 -> 22         0.53954
      21 -> 23        -0.21582
 This state for optimization and/or second-order correction.
 Total Energy, E(TD-HF/TD-DFT) =  -232.004347161
 Copying the excited state density for this state as the 1-particle RhoCI density.

 The electronic state is 1-A.
 Alpha  occ. eigenvalues --  -10.21094 -10.21032 -10.20812 -10.20728 -10.20717
 Alpha  occ. eigenvalues --  -10.20329  -0.83878  -0.73835  -0.72652  -0.59640
 Alpha  occ. eigenvalues --   -0.57744  -0.49675  -0.44993  -0.43513  -0.40630
 Alpha  occ. eigenvalues --   -0.39244  -0.37533  -0.32427  -0.31596  -0.25128
 Alpha  occ. eigenvalues --   -0.24103
 Alpha virt. eigenvalues --   -0.02801  -0.01204   0.06384   0.09373   0.11214
 Alpha virt. eigenvalues --    0.14519   0.15306   0.16404   0.16931   0.26429
 Alpha virt. eigenvalues --    0.28090   0.30194   0.31409   0.46525   0.47764

 Mulliken charges:
               1
     1  C   -0.093110
     2  C   -0.080137
     3  C   -0.095412
     4  C   -0.088096
     5  C   -0.096506
     6  C   -0.086106
     7  H    0.075083
     8  H    0.105418
     9  H    0.091248
    10  H    0.088181
    11  H    0.103333
    12  H    0.076103
 Sum of Mulliken charges =  -0.00000

 Dipole moment (field-independent basis, Debye):
    X=             -0.1761    Y=             -0.2750    Z=              0.3698  Tot=              0.4933
 Quadrupole moment (field-independent basis, Debye-Ang):
   XX=            -32.1004   YY=            -32.7375   ZZ=            -38.8236
   XY=             -0.0606   XZ=              0.0189   YZ=              0.3576

 Normal termination of Gaussian 16 at Fri Nov 10 22:30:39 2023.
