 Gaussian 16, Revision B.01,
 Gaussian 16:  EM64L-G16RevB.01 20-Dec-2017

 ---------------------------------
 # TD=(NStates=1) B3LYP/6-31G(d,p)
 ---------------------------------

 -------
 EMISPCT
 -------
 Symbolic Z-matrix:
 Charge =  0 Multiplicity = 1

                         Standard orientation:
 ---------------------------------------------------------------------
 Center     Atomic      Atomic             Coordinates (Angstroms)
 Number     Number       Type             X           Y           Z
 ---------------------------------------------------------------------
      1          6           0       -1.113303    0.921107   -0.012583
      2          6           0        0.264503    1.325930    0.027355
      3          6           0        1.354464    0.495066   -0.036340
      4          6           0        1.138137   -0.904121    0.061732
      5          6           0       -0.188551   -1.351570    0.002310
      6          6           0       -1.461151   -0.505549   -0.023330
      7          1           0       -1.795731    1.602787    0.116785
      8          1           0       -2.400897   -0.873367   -0.050182
      9          1           0       -0.534984   -2.386483   -0.018535
     10          1           0        2.074348   -1.560895   -0.038595
     11          1           0        2.267262    0.848518   -0.132117
     12          1           0        0.425402    2.484257    0.007780
 ---------------------------------------------------------------------

 SCF Done:  E(RB3LYP) =  -232.195875949     A.U. after   13 cycles

 Excitation energies and oscillator strengths:

 Excited State   1:      Singlet-A      5.0959 eV  243.30 nm  f=0.0054  <S**2>=0.000
      20 -> 22        -0.31699
      20 -> 23         0.33448
      21 -> 22         0.45850
      21 -> 23         0.27766
 This state for optimization and/or second-order correction.
 Total Energy, E(TD-HF/TD-DFT) =  -232.008604798
 Copying the excited state density for this state as the 1-particle RhoCI density.

 The electronic state is 1-A.
 Alpha  occ. eigenvalues --  -10.20238 -10.20192 -10.20138 -10.19481 -10.18874
 Alpha  occ. eigenvalues --  -10.18116  -0.83263  -0.74122  -0.72685  -0.61121
 Alpha  occ. eigenvalues --   -0.59128  -0.51497  -0.48050  -0.43995  -0.42212
 Alpha  occ. eigenvalues --   -0.39320  -0.36136  -0.34688  -0.31642  -0.24483
 Alpha  occ. eigenvalues --   -0.23847
 Alpha virt. eigenvalues --   -0.01514  -0.00056   0.09135   0.13486   0.13897
 Alpha virt. eigenvalues --    0.15039   0.16875   0.19045   0.19850   0.25718
 Alpha virt. eigenvalues --    0.28907   0.29365   0.31920   0.46778   0.48208

 Mulliken charges:
               1
     1  C   -0.070097
     2  C   -0.086464
     3  C   -0.057730
     4  C   -0.087594
     5  C   -0.105782
     6  C   -0.088820
     7  H    0.076913
     8  H    0.094112
     9  H    0.081589
    10  H    0.091765
    11  H    0.080941
    12  H    0.071166
 Sum of Mulliken charges =  -0.00000

 Dipole moment (field-independent basis, Debye):
    X=             -0.0739    Y=              0.0331    Z=             -0.0828  Tot=              0.1158
 Quadrupole moment (field-independent basis, Debye-Ang):
   XX=            -30.1151   YY=            -32.4519   ZZ=            -38.7994
   XY=              0.3182   XZ=             -0.4033   YZ=              0.1978

 Normal termination of Gaussian 16 at Fri Nov 10 21:04:32 2023.
