 Gaussian 16, Revision B.01,
 Gaussian 16:  EM64L-G16RevB.01 20-Dec-2017

 ---------------------------------
 # TD=(NStates=1) B3LYP/6-31G(d,p)
 ---------------------------------

 -------
 EMISPCT
 -------
 Symbolic Z-matrix:
 Charge =  0 Multiplicity = 1

                         Standard orientation:
 ---------------------------------------------------------------------
 Center     Atomic      Atomic             Coordinates (Angstroms)
 Number     Number       Type             X           Y           Z
 ---------------------------------------------------------------------
      1          6           0       -0.471563   -1.272210   -0.039455
      2          6           0        0.933234   -1.072836   -0.030530
      3          6           0        1.462479    0.230472    0.047921
      4          6           0        0.468163    1.308502    0.032891
      5          6           0       -0.947708    1.053109   -0.131245
      6          6           0       -1.480725   -0.263042    0.047846
      7          1           0       -0.734109   -2.305072    0.121580
      8          1           0       -2.482802   -0.425099    0.378553
      9          1           0       -1.674052    1.743525   -0.131968
     10          1           0        0.934774    2.400896    0.175602
     11          1           0        2.521962    0.532947    0.055251
     12          1           0        1.650946   -1.851168   -0.163586
 ---------------------------------------------------------------------

 SCF Done:  E(RB3LYP) =  -232.213600878     A.U. after   13 cycles

 Excitation energies and oscillator strengths:

 Excited State   1:      Singlet-A      5.0129 eV  247.33 nm  f=0.0039  <S**2>=0.000
      20 -> 22         0.19689
      20 -> 23        -0.39388
      21 -> 22         0.50644
      21 -> 23         0.22211
 This state for optimization and/or second-order correction.
 Total Energy, E(TD-HF/TD-DFT) =  -232.029381484
 Copying the excited state density for this state as the 1-particle RhoCI density.

 The electronic state is 1-A.
 Alpha  occ. eigenvalues --  -10.21038 -10.19871 -10.19766 -10.19236 -10.19152
 Alpha  occ. eigenvalues --  -10.19135  -0.83220  -0.74303  -0.72245  -0.59772
 Alpha  occ. eigenvalues --   -0.59366  -0.50988  -0.47198  -0.43647  -0.42079
 Alpha  occ. eigenvalues --   -0.39299  -0.36014  -0.34658  -0.31986  -0.24545
 Alpha  occ. eigenvalues --   -0.23534
 Alpha virt. eigenvalues --   -0.01252  -0.00650   0.08903   0.12692   0.13498
 Alpha virt. eigenvalues --    0.15235   0.16717   0.18004   0.19319   0.26980
 Alpha virt. eigenvalues --    0.28573   0.29680   0.31592   0.46779   0.49665

 Mulliken charges:
               1
     1  C   -0.094221
     2  C   -0.082156
     3  C   -0.085714
     4  C   -0.093813
     5  C   -0.084051
     6  C   -0.091655
     7  H    0.078369
     8  H    0.105980
     9  H    0.082009
    10  H    0.079201
    11  H    0.096127
    12  H    0.089923
 Sum of Mulliken charges =  -0.00000

 Dipole moment (field-independent basis, Debye):
    X=             -0.0305    Y=              0.0097    Z=              0.2762  Tot=              0.2781
 Quadrupole moment (field-independent basis, Debye-Ang):
   XX=            -30.2898   YY=            -32.6852   ZZ=            -38.7506
   XY=             -0.0827   XZ=             -0.7343   YZ=              0.0251

 Normal termination of Gaussian 16 at Fri Nov 10 20:30:13 2023.
