 Gaussian 16, Revision B.01,
 Gaussian 16:  EM64L-G16RevB.01 20-Dec-2017

 ---------------------------------
 # TD=(NStates=1) B3LYP/6-31G(d,p)
 ---------------------------------

 -------
 EMISPCT
 -------
 Symbolic Z-matrix:
 Charge =  0 Multiplicity = 1

                         Standard orientation:
 ---------------------------------------------------------------------
 Center     Atomic      Atomic             Coordinates (Angstroms)
 Number     Number       Type             X           Y           Z
 ---------------------------------------------------------------------
      1          6           0       -1.475039   -0.245708   -0.011148
      2          6           0       -0.501006   -1.236396   -0.069045
      3          6           0        0.916209   -1.065778    0.064582
      4          6           0        1.414074    0.233177    0.019071
      5          6           0        0.552248    1.241226   -0.120348
      6          6           0       -0.882762    1.088002    0.037907
      7          1           0       -2.549249   -0.416086   -0.078563
      8          1           0       -1.684075    1.926462    0.410643
      9          1           0        0.951812    2.195414    0.087885
     10          1           0        2.461871    0.347399   -0.188147
     11          1           0        1.524817   -1.952144    0.359349
     12          1           0       -0.847519   -2.188193   -0.117279
 ---------------------------------------------------------------------

 SCF Done:  E(RB3LYP) =  -232.205670089     A.U. after   14 cycles

 Excitation energies and oscillator strengths:

 Excited State   1:      Singlet-A      5.1724 eV  239.70 nm  f=0.0031  <S**2>=0.000
      20 -> 22        -0.46567
      21 -> 22         0.19093
      21 -> 23         0.48698
 This state for optimization and/or second-order correction.
 Total Energy, E(TD-HF/TD-DFT) =  -232.015587793
 Copying the excited state density for this state as the 1-particle RhoCI density.

 The electronic state is 1-A.
 Alpha  occ. eigenvalues --  -10.21078 -10.19624 -10.19304 -10.18475 -10.18386
 Alpha  occ. eigenvalues --  -10.18272  -0.84532  -0.75220  -0.72446  -0.59931
 Alpha  occ. eigenvalues --   -0.59333  -0.51320  -0.46238  -0.43842  -0.42463
 Alpha  occ. eigenvalues --   -0.39704  -0.37226  -0.33303  -0.32296  -0.25476
 Alpha  occ. eigenvalues --   -0.23335
 Alpha virt. eigenvalues --   -0.01664   0.00195   0.08759   0.11591   0.14394
 Alpha virt. eigenvalues --    0.15542   0.16648   0.18475   0.19413   0.27223
 Alpha virt. eigenvalues --    0.29784   0.30061   0.32987   0.46968   0.48632

 Mulliken charges:
               1
     1  C   -0.076840
     2  C   -0.080167
     3  C   -0.091249
     4  C   -0.078529
     5  C   -0.089459
     6  C   -0.110382
     7  H    0.099511
     8  H    0.080432
     9  H    0.088053
    10  H    0.093737
    11  H    0.091347
    12  H    0.073545
 Sum of Mulliken charges =  -0.00000

 Dipole moment (field-independent basis, Debye):
    X=             -0.0519    Y=             -0.2376    Z=              0.2729  Tot=              0.3655
 Quadrupole moment (field-independent basis, Debye-Ang):
   XX=            -30.8083   YY=            -32.7671   ZZ=            -38.3890
   XY=              0.1320   XZ=             -0.1406   YZ=              0.3808

 Normal termination of Gaussian 16 at Fri Nov 10 20:26:04 2023.
