 Gaussian 16, Revision B.01,
 Gaussian 16:  EM64L-G16RevB.01 20-Dec-2017

 ---------------------------------
 # TD=(NStates=1) B3LYP/6-31G(d,p)
 ---------------------------------

 -------
 EMISPCT
 -------
 Symbolic Z-matrix:
 Charge =  0 Multiplicity = 1

                         Standard orientation:
 ---------------------------------------------------------------------
 Center     Atomic      Atomic             Coordinates (Angstroms)
 Number     Number       Type             X           Y           Z
 ---------------------------------------------------------------------
      1          6           0        0.733454    1.192369   -0.028939
      2          6           0       -0.773785    1.220045   -0.028706
      3          6           0       -1.454278   -0.014224    0.013665
      4          6           0       -0.690431   -1.210687   -0.020953
      5          6           0        0.662273   -1.179111   -0.016771
      6          6           0        1.449771    0.007088   -0.043250
      7          1           0        1.392935    2.052483    0.170741
      8          1           0        2.582718   -0.014251    0.046960
      9          1           0        1.499719   -2.032706    0.253864
     10          1           0       -1.240780   -2.352663    0.103953
     11          1           0       -2.520341   -0.068732   -0.064999
     12          1           0       -1.276286    2.322984    0.239212
 ---------------------------------------------------------------------

 SCF Done:  E(RB3LYP) =  -232.187194509     A.U. after   13 cycles

 Excitation energies and oscillator strengths:

 Excited State   1:      Singlet-A      5.2952 eV  234.14 nm  f=0.0025  <S**2>=0.000
      20 -> 22         0.39189
      20 -> 23        -0.24049
      21 -> 22         0.32353
      21 -> 23         0.42818
 This state for optimization and/or second-order correction.
 Total Energy, E(TD-HF/TD-DFT) =  -231.992598097
 Copying the excited state density for this state as the 1-particle RhoCI density.

 The electronic state is 1-A.
 Alpha  occ. eigenvalues --  -10.21955 -10.20986 -10.20234 -10.20116 -10.19995
 Alpha  occ. eigenvalues --  -10.19667  -0.84230  -0.74474  -0.72528  -0.59224
 Alpha  occ. eigenvalues --   -0.58835  -0.49791  -0.44706  -0.44137  -0.41321
 Alpha  occ. eigenvalues --   -0.38915  -0.36305  -0.33963  -0.31258  -0.25362
 Alpha  occ. eigenvalues --   -0.24299
 Alpha virt. eigenvalues --   -0.01064  -0.00424   0.05386   0.10039   0.11365
 Alpha virt. eigenvalues --    0.14448   0.14519   0.16279   0.18493   0.26608
 Alpha virt. eigenvalues --    0.28614   0.30487   0.32497   0.46478   0.49219

 Mulliken charges:
               1
     1  C   -0.093470
     2  C   -0.100327
     3  C   -0.088509
     4  C   -0.089924
     5  C   -0.063961
     6  C   -0.083380
     7  H    0.085714
     8  H    0.096929
     9  H    0.073309
    10  H    0.075934
    11  H    0.100379
    12  H    0.087306
 Sum of Mulliken charges =  -0.00000

 Dipole moment (field-independent basis, Debye):
    X=              0.1728    Y=              0.1303    Z=              0.4163  Tot=              0.4692
 Quadrupole moment (field-independent basis, Debye-Ang):
   XX=            -30.7987   YY=            -33.2006   ZZ=            -39.1084
   XY=              0.1534   XZ=              0.4184   YZ=              0.2309

 Normal termination of Gaussian 16 at Fri Nov 10 19:38:50 2023.
