 Gaussian 16, Revision B.01,
 Gaussian 16:  EM64L-G16RevB.01 20-Dec-2017

 ---------------------------------
 # TD=(NStates=1) B3LYP/6-31G(d,p)
 ---------------------------------

 -------
 EMISPCT
 -------
 Symbolic Z-matrix:
 Charge =  0 Multiplicity = 1

                         Standard orientation:
 ---------------------------------------------------------------------
 Center     Atomic      Atomic             Coordinates (Angstroms)
 Number     Number       Type             X           Y           Z
 ---------------------------------------------------------------------
      1          6           0        0.218372   -1.376557    0.012824
      2          6           0       -1.255718   -0.803159   -0.069253
      3          6           0       -1.346144    0.587597    0.068241
      4          6           0       -0.128275    1.387143    0.020825
      5          6           0        1.203475    0.821282   -0.046688
      6          6           0        1.332762   -0.578273   -0.008933
      7          1           0        0.088954   -2.374549    0.125376
      8          1           0        2.201289   -1.209989    0.141249
      9          1           0        2.149779    1.300368   -0.039466
     10          1           0       -0.210671    2.525487    0.003664
     11          1           0       -2.254313    0.945352   -0.026878
     12          1           0       -2.121875   -1.414873   -0.066042
 ---------------------------------------------------------------------

 SCF Done:  E(RB3LYP) =  -232.195581092     A.U. after   13 cycles

 Excitation energies and oscillator strengths:

 Excited State   1:      Singlet-A      5.1133 eV  242.47 nm  f=0.0038  <S**2>=0.000
      20 -> 22        -0.46571
      21 -> 22        -0.18570
      21 -> 23         0.49214
 This state for optimization and/or second-order correction.
 Total Energy, E(TD-HF/TD-DFT) =  -232.007669899
 Copying the excited state density for this state as the 1-particle RhoCI density.

 The electronic state is 1-A.
 Alpha  occ. eigenvalues --  -10.20812 -10.19777 -10.19733 -10.19004 -10.18938
 Alpha  occ. eigenvalues --  -10.18636  -0.82874  -0.74912  -0.71982  -0.60543
 Alpha  occ. eigenvalues --   -0.59402  -0.51355  -0.48067  -0.43659  -0.42361
 Alpha  occ. eigenvalues --   -0.39819  -0.35084  -0.34546  -0.31761  -0.25407
 Alpha  occ. eigenvalues --   -0.22878
 Alpha virt. eigenvalues --   -0.01905   0.00360   0.10001   0.13527   0.14869
 Alpha virt. eigenvalues --    0.14969   0.15692   0.17899   0.19747   0.24756
 Alpha virt. eigenvalues --    0.28057   0.29786   0.31770   0.45846   0.48253

 Mulliken charges:
               1
     1  C   -0.082082
     2  C   -0.117892
     3  C   -0.055596
     4  C   -0.107236
     5  C   -0.089981
     6  C   -0.080458
     7  H    0.084633
     8  H    0.094433
     9  H    0.095775
    10  H    0.085372
    11  H    0.080806
    12  H    0.092225
 Sum of Mulliken charges =  -0.00000

 Dipole moment (field-independent basis, Debye):
    X=             -0.1027    Y=             -0.1901    Z=              0.0957  Tot=              0.2363
 Quadrupole moment (field-independent basis, Debye-Ang):
   XX=            -30.5888   YY=            -31.8411   ZZ=            -38.8223
   XY=              0.3101   XZ=              0.3447   YZ=             -0.3928

 Normal termination of Gaussian 16 at Fri Nov 10 21:15:07 2023.
