 Gaussian 16, Revision B.01,
 Gaussian 16:  EM64L-G16RevB.01 20-Dec-2017

 ---------------------------------
 # TD=(NStates=1) B3LYP/6-31G(d,p)
 ---------------------------------

 -------
 EMISPCT
 -------
 Symbolic Z-matrix:
 Charge =  0 Multiplicity = 1

                         Standard orientation:
 ---------------------------------------------------------------------
 Center     Atomic      Atomic             Coordinates (Angstroms)
 Number     Number       Type             X           Y           Z
 ---------------------------------------------------------------------
      1          6           0       -0.316389   -1.387193   -0.071055
      2          6           0        1.080889   -0.953548    0.098457
      3          6           0        1.369884    0.393044   -0.072744
      4          6           0        0.325034    1.348632    0.030563
      5          6           0       -1.077851    0.981523   -0.000407
      6          6           0       -1.406405   -0.450134   -0.017448
      7          1           0       -0.574554   -2.255843   -0.025445
      8          1           0       -2.295998   -0.897294    0.062858
      9          1           0       -1.909782    1.825455    0.135964
     10          1           0        0.578176    2.478840   -0.013803
     11          1           0        2.405493    0.838902   -0.126374
     12          1           0        1.945695   -1.584007    0.162593
 ---------------------------------------------------------------------

 SCF Done:  E(RB3LYP) =  -232.185439919     A.U. after   14 cycles

 Excitation energies and oscillator strengths:

 Excited State   1:      Singlet-A      5.0646 eV  244.81 nm  f=0.0003  <S**2>=0.000
      20 -> 22         0.47675
      20 -> 23         0.13026
      21 -> 22        -0.16367
      21 -> 23         0.47814
 This state for optimization and/or second-order correction.
 Total Energy, E(TD-HF/TD-DFT) =  -231.999320951
 Copying the excited state density for this state as the 1-particle RhoCI density.

 The electronic state is 1-A.
 Alpha  occ. eigenvalues --  -10.21272 -10.20235 -10.19734 -10.19588 -10.19390
 Alpha  occ. eigenvalues --  -10.18327  -0.83059  -0.74314  -0.72628  -0.60427
 Alpha  occ. eigenvalues --   -0.59422  -0.51168  -0.47096  -0.42888  -0.41782
 Alpha  occ. eigenvalues --   -0.40571  -0.34911  -0.34418  -0.33406  -0.24481
 Alpha  occ. eigenvalues --   -0.23735
 Alpha virt. eigenvalues --   -0.01266  -0.00590   0.08555   0.12686   0.13573
 Alpha virt. eigenvalues --    0.15259   0.16003   0.17648   0.20488   0.27872
 Alpha virt. eigenvalues --    0.28544   0.29618   0.30268   0.46061   0.48003

 Mulliken charges:
               1
     1  C   -0.054740
     2  C   -0.090966
     3  C   -0.078740
     4  C   -0.087912
     5  C   -0.096768
     6  C   -0.082574
     7  H    0.058319
     8  H    0.086440
     9  H    0.085670
    10  H    0.082104
    11  H    0.088918
    12  H    0.090248
 Sum of Mulliken charges =  -0.00000

 Dipole moment (field-independent basis, Debye):
    X=              0.0285    Y=             -0.1504    Z=              0.1329  Tot=              0.2027
 Quadrupole moment (field-independent basis, Debye-Ang):
   XX=            -31.1032   YY=            -31.5700   ZZ=            -38.8995
   XY=              0.5074   XZ=             -0.3130   YZ=             -0.1438

 Normal termination of Gaussian 16 at Fri Nov 10 19:58:40 2023.
