 Gaussian 16, Revision B.01,
 Gaussian 16:  EM64L-G16RevB.01 20-Dec-2017

 ---------------------------------
 # TD=(NStates=1) B3LYP/6-31G(d,p)
 ---------------------------------

 -------
 EMISPCT
 -------
 Symbolic Z-matrix:
 Charge =  0 Multiplicity = 1

                         Standard orientation:
 ---------------------------------------------------------------------
 Center     Atomic      Atomic             Coordinates (Angstroms)
 Number     Number       Type             X           Y           Z
 ---------------------------------------------------------------------
      1          6           0        1.348204    0.450111   -0.057140
      2          6           0        1.099690   -0.950278   -0.011353
      3          6           0       -0.294850   -1.349082    0.107924
      4          6           0       -1.382559   -0.483307   -0.181566
      5          6           0       -1.037507    0.944260    0.040484
      6          6           0        0.296877    1.370618    0.009584
      7          1           0        2.245053    0.697618   -0.093757
      8          1           0        0.611731    2.487091    0.314124
      9          1           0       -1.879945    1.744576    0.231913
     10          1           0       -2.440914   -0.714814   -0.313610
     11          1           0       -0.433178   -2.405892    0.727550
     12          1           0        1.718123   -1.702505   -0.313818
 ---------------------------------------------------------------------

 SCF Done:  E(RB3LYP) =  -232.162187522     A.U. after   13 cycles

 Excitation energies and oscillator strengths:

 Excited State   1:      Singlet-A      4.5851 eV  270.40 nm  f=0.0041  <S**2>=0.000
      20 -> 23        -0.39603
      21 -> 22         0.58279
 This state for optimization and/or second-order correction.
 Total Energy, E(TD-HF/TD-DFT) =  -231.993686891
 Copying the excited state density for this state as the 1-particle RhoCI density.

 The electronic state is 1-A.
 Alpha  occ. eigenvalues --  -10.21324 -10.21020 -10.20817 -10.19741 -10.18788
 Alpha  occ. eigenvalues --  -10.17760  -0.83548  -0.73934  -0.72856  -0.60899
 Alpha  occ. eigenvalues --   -0.58071  -0.50476  -0.47496  -0.43084  -0.41968
 Alpha  occ. eigenvalues --   -0.39522  -0.35954  -0.35503  -0.31457  -0.23966
 Alpha  occ. eigenvalues --   -0.22858
 Alpha virt. eigenvalues --   -0.02007  -0.01474   0.08142   0.09924   0.13965
 Alpha virt. eigenvalues --    0.14530   0.15779   0.17142   0.19847   0.26370
 Alpha virt. eigenvalues --    0.29015   0.30753   0.31889   0.45911   0.47780

 Mulliken charges:
               1
     1  C   -0.045485
     2  C   -0.096280
     3  C   -0.103833
     4  C   -0.088359
     5  C   -0.107042
     6  C   -0.076860
     7  H    0.066001
     8  H    0.075934
     9  H    0.089910
    10  H    0.102259
    11  H    0.081241
    12  H    0.102515
 Sum of Mulliken charges =  -0.00000

 Dipole moment (field-independent basis, Debye):
    X=             -0.0693    Y=             -0.0670    Z=              0.2066  Tot=              0.2280
 Quadrupole moment (field-independent basis, Debye-Ang):
   XX=            -31.2925   YY=            -32.8055   ZZ=            -38.3270
   XY=             -0.3360   XZ=             -0.4029   YZ=              0.3333

 Normal termination of Gaussian 16 at Fri Nov 10 21:14:12 2023.
