 Gaussian 16, Revision B.01,
 Gaussian 16:  EM64L-G16RevB.01 20-Dec-2017

 ---------------------------------
 # TD=(NStates=1) B3LYP/6-31G(d,p)
 ---------------------------------

 -------
 EMISPCT
 -------
 Symbolic Z-matrix:
 Charge =  0 Multiplicity = 1

                         Standard orientation:
 ---------------------------------------------------------------------
 Center     Atomic      Atomic             Coordinates (Angstroms)
 Number     Number       Type             X           Y           Z
 ---------------------------------------------------------------------
      1          6           0       -0.520129   -1.291568    0.013080
      2          6           0        0.885927   -1.125529    0.013737
      3          6           0        1.426666    0.233679   -0.128884
      4          6           0        0.542337    1.254992   -0.001563
      5          6           0       -0.930307    1.108675    0.021464
      6          6           0       -1.417453   -0.172430    0.053622
      7          1           0       -0.746641   -2.228084   -0.108641
      8          1           0       -2.393010   -0.608265   -0.130633
      9          1           0       -1.603982    2.045962   -0.158321
     10          1           0        1.023377    2.300013    0.185457
     11          1           0        2.479888    0.387759    0.266110
     12          1           0        1.318118   -1.944295    0.117289
 ---------------------------------------------------------------------

 SCF Done:  E(RB3LYP) =  -232.174609573     A.U. after   14 cycles

 Excitation energies and oscillator strengths:

 Excited State   1:      Singlet-A      5.0969 eV  243.25 nm  f=0.0078  <S**2>=0.000
      20 -> 22        -0.32191
      20 -> 23         0.26575
      21 -> 22         0.41855
      21 -> 23         0.38737
 This state for optimization and/or second-order correction.
 Total Energy, E(TD-HF/TD-DFT) =  -231.987301459
 Copying the excited state density for this state as the 1-particle RhoCI density.

 The electronic state is 1-A.
 Alpha  occ. eigenvalues --  -10.20814 -10.20261 -10.19568 -10.19494 -10.17922
 Alpha  occ. eigenvalues --  -10.17609  -0.83940  -0.74306  -0.74022  -0.61089
 Alpha  occ. eigenvalues --   -0.58901  -0.51308  -0.47062  -0.44108  -0.41739
 Alpha  occ. eigenvalues --   -0.40393  -0.34958  -0.34741  -0.32187  -0.25386
 Alpha  occ. eigenvalues --   -0.23526
 Alpha virt. eigenvalues --   -0.01450  -0.00520   0.08638   0.12525   0.13851
 Alpha virt. eigenvalues --    0.15178   0.16114   0.17622   0.22352   0.27015
 Alpha virt. eigenvalues --    0.28652   0.30217   0.32324   0.46832   0.48140

 Mulliken charges:
               1
     1  C   -0.081392
     2  C   -0.054978
     3  C   -0.096835
     4  C   -0.088280
     5  C   -0.101756
     6  C   -0.069859
     7  H    0.072149
     8  H    0.092729
     9  H    0.093964
    10  H    0.082213
    11  H    0.090173
    12  H    0.061872
 Sum of Mulliken charges =  -0.00000

 Dipole moment (field-independent basis, Debye):
    X=             -0.0970    Y=             -0.3013    Z=              0.1011  Tot=              0.3322
 Quadrupole moment (field-independent basis, Debye-Ang):
   XX=            -32.3941   YY=            -31.1880   ZZ=            -38.4625
   XY=              0.1237   XZ=              1.3972   YZ=              0.2302

 Normal termination of Gaussian 16 at Fri Nov 10 21:38:08 2023.
