 Gaussian 16, Revision B.01,
 Gaussian 16:  EM64L-G16RevB.01 20-Dec-2017

 ---------------------------------
 # TD=(NStates=1) B3LYP/6-31G(d,p)
 ---------------------------------

 -------
 EMISPCT
 -------
 Symbolic Z-matrix:
 Charge =  0 Multiplicity = 1

                         Standard orientation:
 ---------------------------------------------------------------------
 Center     Atomic      Atomic             Coordinates (Angstroms)
 Number     Number       Type             X           Y           Z
 ---------------------------------------------------------------------
      1          6           0       -1.390094    0.259433   -0.035477
      2          6           0       -0.516627    1.285205    0.099751
      3          6           0        0.958232    1.078468   -0.019121
      4          6           0        1.384299   -0.249936   -0.092336
      5          6           0        0.464303   -1.288773    0.062415
      6          6           0       -0.879898   -1.057587   -0.110423
      7          1           0       -2.559393    0.311457   -0.010265
      8          1           0       -1.619769   -1.854398    0.188862
      9          1           0        0.833919   -2.364773    0.233854
     10          1           0        2.424563   -0.539691    0.154690
     11          1           0        1.582996    1.885768   -0.065060
     12          1           0       -0.783607    2.400780    0.069071
 ---------------------------------------------------------------------

 SCF Done:  E(RB3LYP) =  -232.218723356     A.U. after   13 cycles

 Excitation energies and oscillator strengths:

 Excited State   1:      Singlet-A      5.3265 eV  232.77 nm  f=0.0016  <S**2>=0.000
      20 -> 22         0.49627
      20 -> 23         0.10864
      21 -> 22         0.16126
      21 -> 23        -0.46417
 This state for optimization and/or second-order correction.
 Total Energy, E(TD-HF/TD-DFT) =  -232.022979735
 Copying the excited state density for this state as the 1-particle RhoCI density.

 The electronic state is 1-A.
 Alpha  occ. eigenvalues --  -10.20006 -10.19852 -10.19568 -10.19361 -10.19111
 Alpha  occ. eigenvalues --  -10.18942  -0.84683  -0.74400  -0.73384  -0.60194
 Alpha  occ. eigenvalues --   -0.58721  -0.51091  -0.45229  -0.43883  -0.41586
 Alpha  occ. eigenvalues --   -0.40663  -0.35880  -0.34343  -0.32263  -0.25341
 Alpha  occ. eigenvalues --   -0.24244
 Alpha virt. eigenvalues --   -0.01379   0.00171   0.07592   0.12214   0.13703
 Alpha virt. eigenvalues --    0.14181   0.17052   0.18307   0.18825   0.26758
 Alpha virt. eigenvalues --    0.29439   0.32066   0.33041   0.46385   0.48034

 Mulliken charges:
               1
     1  C   -0.081478
     2  C   -0.090460
     3  C   -0.087006
     4  C   -0.086312
     5  C   -0.081491
     6  C   -0.089002
     7  H    0.089563
     8  H    0.082600
     9  H    0.084832
    10  H    0.084706
    11  H    0.093236
    12  H    0.080810
 Sum of Mulliken charges =  -0.00000

 Dipole moment (field-independent basis, Debye):
    X=              0.0788    Y=              0.0682    Z=              0.3263  Tot=              0.3425
 Quadrupole moment (field-independent basis, Debye-Ang):
   XX=            -31.9021   YY=            -31.9435   ZZ=            -38.6507
   XY=              0.4309   XZ=              0.0917   YZ=             -0.8077

 Normal termination of Gaussian 16 at Fri Nov 10 19:55:21 2023.
