 Gaussian 16, Revision B.01,
 Gaussian 16:  EM64L-G16RevB.01 20-Dec-2017

 ---------------------------------
 # TD=(NStates=1) B3LYP/6-31G(d,p)
 ---------------------------------

 -------
 EMISPCT
 -------
 Symbolic Z-matrix:
 Charge =  0 Multiplicity = 1

                         Standard orientation:
 ---------------------------------------------------------------------
 Center     Atomic      Atomic             Coordinates (Angstroms)
 Number     Number       Type             X           Y           Z
 ---------------------------------------------------------------------
      1          6           0        1.431797    0.060406    0.098226
      2          6           0        0.811409   -1.186617   -0.048459
      3          6           0       -0.642019   -1.192698   -0.024913
      4          6           0       -1.424722   -0.144690    0.000326
      5          6           0       -0.805267    1.153972   -0.064959
      6          6           0        0.650205    1.268421   -0.014133
      7          1           0        2.512293    0.199204    0.033456
      8          1           0        1.146571    2.331942   -0.143593
      9          1           0       -1.449346    2.023744    0.257842
     10          1           0       -2.602997   -0.094120    0.092012
     11          1           0       -1.204162   -2.153994    0.145534
     12          1           0        1.469226   -2.059536   -0.061780
 ---------------------------------------------------------------------

 SCF Done:  E(RB3LYP) =  -232.212624249     A.U. after   13 cycles

 Excitation energies and oscillator strengths:

 Excited State   1:      Singlet-A      5.2155 eV  237.72 nm  f=0.0037  <S**2>=0.000
      20 -> 22        -0.46656
      21 -> 22        -0.20176
      21 -> 23         0.48205
 This state for optimization and/or second-order correction.
 Total Energy, E(TD-HF/TD-DFT) =  -232.020958257
 Copying the excited state density for this state as the 1-particle RhoCI density.

 The electronic state is 1-A.
 Alpha  occ. eigenvalues --  -10.20848 -10.20200 -10.19948 -10.19736 -10.19544
 Alpha  occ. eigenvalues --  -10.19234  -0.84123  -0.74614  -0.72342  -0.60021
 Alpha  occ. eigenvalues --   -0.58096  -0.50546  -0.45059  -0.43873  -0.41780
 Alpha  occ. eigenvalues --   -0.39885  -0.35790  -0.34116  -0.32332  -0.25646
 Alpha  occ. eigenvalues --   -0.23410
 Alpha virt. eigenvalues --   -0.01831   0.00382   0.07248   0.11907   0.13595
 Alpha virt. eigenvalues --    0.14444   0.16138   0.17372   0.17895   0.27332
 Alpha virt. eigenvalues --    0.28388   0.29714   0.32660   0.46234   0.48876

 Mulliken charges:
               1
     1  C   -0.084840
     2  C   -0.089242
     3  C   -0.089260
     4  C   -0.066029
     5  C   -0.105408
     6  C   -0.099814
     7  H    0.089535
     8  H    0.089025
     9  H    0.087353
    10  H    0.091907
    11  H    0.078652
    12  H    0.098121
 Sum of Mulliken charges =  -0.00000

 Dipole moment (field-independent basis, Debye):
    X=              0.0810    Y=             -0.0386    Z=              0.1846  Tot=              0.2052
 Quadrupole moment (field-independent basis, Debye-Ang):
   XX=            -31.0610   YY=            -32.4719   ZZ=            -38.9019
   XY=             -0.2549   XZ=             -0.7933   YZ=              0.0486

 Normal termination of Gaussian 16 at Fri Nov 10 21:56:03 2023.
