 Gaussian 16, Revision B.01,
 Gaussian 16:  EM64L-G16RevB.01 20-Dec-2017

 ---------------------------------
 # TD=(NStates=1) B3LYP/6-31G(d,p)
 ---------------------------------

 -------
 EMISPCT
 -------
 Symbolic Z-matrix:
 Charge =  0 Multiplicity = 1

                         Standard orientation:
 ---------------------------------------------------------------------
 Center     Atomic      Atomic             Coordinates (Angstroms)
 Number     Number       Type             X           Y           Z
 ---------------------------------------------------------------------
      1          6           0        0.300584    1.361997   -0.059436
      2          6           0       -1.074039    0.938706   -0.040174
      3          6           0       -1.335815   -0.422476   -0.055303
      4          6           0       -0.243293   -1.371868    0.115127
      5          6           0        0.985565   -0.945383   -0.003611
      6          6           0        1.330974    0.416700    0.042758
      7          1           0        0.465130    2.440751    0.064241
      8          1           0        2.651364    0.651145   -0.019879
      9          1           0        1.854948   -1.515621   -0.120479
     10          1           0       -0.656924   -2.370744   -0.283062
     11          1           0       -2.359818   -0.761858    0.089343
     12          1           0       -1.738552    1.690276    0.273676
 ---------------------------------------------------------------------

 SCF Done:  E(RB3LYP) =  -232.185376388     A.U. after   13 cycles

 Excitation energies and oscillator strengths:

 Excited State   1:      Singlet-A      5.2606 eV  235.68 nm  f=0.0024  <S**2>=0.000
      20 -> 22        -0.43637
      20 -> 23        -0.18316
      21 -> 22        -0.27862
      21 -> 23         0.44447
 This state for optimization and/or second-order correction.
 Total Energy, E(TD-HF/TD-DFT) =  -231.992052697
 Copying the excited state density for this state as the 1-particle RhoCI density.

 The electronic state is 1-A.
 Alpha  occ. eigenvalues --  -10.21300 -10.19826 -10.19342 -10.19125 -10.18956
 Alpha  occ. eigenvalues --  -10.18270  -0.85149  -0.75133  -0.73262  -0.59973
 Alpha  occ. eigenvalues --   -0.59509  -0.51378  -0.45150  -0.44308  -0.42148
 Alpha  occ. eigenvalues --   -0.39713  -0.35939  -0.33622  -0.32418  -0.25454
 Alpha  occ. eigenvalues --   -0.24327
 Alpha virt. eigenvalues --   -0.01352  -0.00462   0.05514   0.11712   0.12666
 Alpha virt. eigenvalues --    0.14777   0.17316   0.18441   0.19464   0.27065
 Alpha virt. eigenvalues --    0.29155   0.31612   0.34607   0.45865   0.48236

 Mulliken charges:
               1
     1  C   -0.105191
     2  C   -0.070639
     3  C   -0.111723
     4  C   -0.097356
     5  C   -0.045885
     6  C   -0.074664
     7  H    0.088344
     8  H    0.058890
     9  H    0.087831
    10  H    0.087445
    11  H    0.088264
    12  H    0.094685
 Sum of Mulliken charges =  -0.00000

 Dipole moment (field-independent basis, Debye):
    X=             -0.0869    Y=              0.1499    Z=              0.0062  Tot=              0.1734
 Quadrupole moment (field-independent basis, Debye-Ang):
   XX=            -31.8512   YY=            -32.5944   ZZ=            -38.4881
   XY=             -0.3758   XZ=             -0.6193   YZ=              1.1882

 Normal termination of Gaussian 16 at Fri Nov 10 20:59:50 2023.
