 Gaussian 16, Revision B.01,
 Gaussian 16:  EM64L-G16RevB.01 20-Dec-2017

 ---------------------------------
 # TD=(NStates=1) B3LYP/6-31G(d,p)
 ---------------------------------

 -------
 EMISPCT
 -------
 Symbolic Z-matrix:
 Charge =  0 Multiplicity = 1

                         Standard orientation:
 ---------------------------------------------------------------------
 Center     Atomic      Atomic             Coordinates (Angstroms)
 Number     Number       Type             X           Y           Z
 ---------------------------------------------------------------------
      1          6           0        0.748610    1.229676    0.001900
      2          6           0        1.435812   -0.058022   -0.059648
      3          6           0        0.663056   -1.243885   -0.034338
      4          6           0       -0.740248   -1.209784    0.072734
      5          6           0       -1.451140    0.034632   -0.034216
      6          6           0       -0.659075    1.224792    0.031986
      7          1           0        1.448787    2.179284    0.292845
      8          1           0       -1.347224    2.221977   -0.077326
      9          1           0       -2.552617    0.109569   -0.234398
     10          1           0       -1.306280   -2.119139    0.171747
     11          1           0        1.218270   -2.101610    0.036675
     12          1           0        2.556972   -0.154538   -0.060051
 ---------------------------------------------------------------------

 SCF Done:  E(RB3LYP) =  -232.218336544     A.U. after   13 cycles

 Excitation energies and oscillator strengths:

 Excited State   1:      Singlet-A      5.1632 eV  240.13 nm  f=0.0008  <S**2>=0.000
      20 -> 22         0.52720
      21 -> 23        -0.46764
 This state for optimization and/or second-order correction.
 Total Energy, E(TD-HF/TD-DFT) =  -232.028593287
 Copying the excited state density for this state as the 1-particle RhoCI density.

 The electronic state is 1-A.
 Alpha  occ. eigenvalues --  -10.21146 -10.20760 -10.20246 -10.20225 -10.19641
 Alpha  occ. eigenvalues --  -10.18765  -0.83471  -0.73587  -0.72937  -0.59605
 Alpha  occ. eigenvalues --   -0.58662  -0.50511  -0.45466  -0.43647  -0.41236
 Alpha  occ. eigenvalues --   -0.40185  -0.36018  -0.34310  -0.32093  -0.24703
 Alpha  occ. eigenvalues --   -0.24087
 Alpha virt. eigenvalues --   -0.01494  -0.00130   0.07312   0.11905   0.13145
 Alpha virt. eigenvalues --    0.14613   0.15157   0.17268   0.18868   0.27378
 Alpha virt. eigenvalues --    0.28788   0.29504   0.32009   0.47232   0.49977

 Mulliken charges:
               1
     1  C   -0.092429
     2  C   -0.099825
     3  C   -0.064666
     4  C   -0.091828
     5  C   -0.087971
     6  C   -0.088960
     7  H    0.087152
     8  H    0.074974
     9  H    0.098699
    10  H    0.087777
    11  H    0.084636
    12  H    0.092441
 Sum of Mulliken charges =  -0.00000

 Dipole moment (field-independent basis, Debye):
    X=              0.0228    Y=             -0.2768    Z=              0.0789  Tot=              0.2888
 Quadrupole moment (field-independent basis, Debye-Ang):
   XX=            -30.7658   YY=            -32.5173   ZZ=            -39.0024
   XY=             -0.1896   XZ=              0.7038   YZ=             -0.0059

 Normal termination of Gaussian 16 at Fri Nov 10 20:14:42 2023.
