 Gaussian 16, Revision B.01,
 Gaussian 16:  EM64L-G16RevB.01 20-Dec-2017

 ---------------------------------
 # TD=(NStates=1) B3LYP/6-31G(d,p)
 ---------------------------------

 -------
 EMISPCT
 -------
 Symbolic Z-matrix:
 Charge =  0 Multiplicity = 1

                         Standard orientation:
 ---------------------------------------------------------------------
 Center     Atomic      Atomic             Coordinates (Angstroms)
 Number     Number       Type             X           Y           Z
 ---------------------------------------------------------------------
      1          6           0        0.335259    1.300069    0.060177
      2          6           0        1.365977    0.410463   -0.092498
      3          6           0        1.077040   -0.970428   -0.026352
      4          6           0       -0.332926   -1.291980    0.060628
      5          6           0       -1.363204   -0.371121   -0.022264
      6          6           0       -1.009584    0.964314   -0.033838
      7          1           0        0.457182    2.518367    0.089484
      8          1           0       -1.774639    1.606168   -0.007313
      9          1           0       -2.424717   -0.881649   -0.023113
     10          1           0       -0.700528   -2.311158    0.062352
     11          1           0        1.671422   -1.828007    0.000268
     12          1           0        2.335912    0.648373    0.203208
 ---------------------------------------------------------------------

 SCF Done:  E(RB3LYP) =  -232.207578597     A.U. after   13 cycles

 Excitation energies and oscillator strengths:

 Excited State   1:      Singlet-A      5.3987 eV  229.66 nm  f=0.0043  <S**2>=0.000
      20 -> 22        -0.33930
      20 -> 23         0.30907
      21 -> 22         0.41267
      21 -> 23         0.34444
 This state for optimization and/or second-order correction.
 Total Energy, E(TD-HF/TD-DFT) =  -232.009180945
 Copying the excited state density for this state as the 1-particle RhoCI density.

 The electronic state is 1-A.
 Alpha  occ. eigenvalues --  -10.20004 -10.19401 -10.19246 -10.18838 -10.18395
 Alpha  occ. eigenvalues --  -10.17972  -0.85035  -0.74986  -0.73547  -0.61088
 Alpha  occ. eigenvalues --   -0.58933  -0.51869  -0.45993  -0.44397  -0.42531
 Alpha  occ. eigenvalues --   -0.39571  -0.36225  -0.34279  -0.32326  -0.25346
 Alpha  occ. eigenvalues --   -0.24263
 Alpha virt. eigenvalues --   -0.00799   0.00220   0.07835   0.11973   0.14914
 Alpha virt. eigenvalues --    0.15280   0.17477   0.18526   0.19873   0.28273
 Alpha virt. eigenvalues --    0.30058   0.31235   0.32496   0.47014   0.49823

 Mulliken charges:
               1
     1  C   -0.081298
     2  C   -0.103885
     3  C   -0.082927
     4  C   -0.085873
     5  C   -0.077763
     6  C   -0.068663
     7  H    0.070083
     8  H    0.081677
     9  H    0.085012
    10  H    0.071990
    11  H    0.095388
    12  H    0.096259
 Sum of Mulliken charges =  -0.00000

 Dipole moment (field-independent basis, Debye):
    X=             -0.1687    Y=             -0.2262    Z=              0.1886  Tot=              0.3394
 Quadrupole moment (field-independent basis, Debye-Ang):
   XX=            -31.6801   YY=            -31.9420   ZZ=            -38.4874
   XY=             -0.4017   XZ=              0.4790   YZ=              0.1500

 Normal termination of Gaussian 16 at Fri Nov 10 22:24:07 2023.
