 Gaussian 16, Revision B.01,
 Gaussian 16:  EM64L-G16RevB.01 20-Dec-2017

 ---------------------------------
 # TD=(NStates=1) B3LYP/6-31G(d,p)
 ---------------------------------

 -------
 EMISPCT
 -------
 Symbolic Z-matrix:
 Charge =  0 Multiplicity = 1

                         Standard orientation:
 ---------------------------------------------------------------------
 Center     Atomic      Atomic             Coordinates (Angstroms)
 Number     Number       Type             X           Y           Z
 ---------------------------------------------------------------------
      1          6           0       -1.155580    0.803846   -0.067735
      2          6           0       -1.346855   -0.557321    0.081432
      3          6           0       -0.173263   -1.373133   -0.061980
      4          6           0        1.216330   -0.851484   -0.065594
      5          6           0        1.332828    0.597350    0.055319
      6          6           0        0.158337    1.376473   -0.001333
      7          1           0       -2.137161    1.352210   -0.147172
      8          1           0        0.252321    2.469298   -0.158788
      9          1           0        2.364880    0.948964    0.371672
     10          1           0        2.100896   -1.506618   -0.046742
     11          1           0       -0.322380   -2.337619   -0.028188
     12          1           0       -2.449339   -0.900622    0.368566
 ---------------------------------------------------------------------

 SCF Done:  E(RB3LYP) =  -232.207454895     A.U. after   13 cycles

 Excitation energies and oscillator strengths:

 Excited State   1:      Singlet-A      5.0494 eV  245.54 nm  f=0.0008  <S**2>=0.000
      20 -> 22         0.46068
      20 -> 23         0.10499
      21 -> 22        -0.12737
      21 -> 23         0.51009
 This state for optimization and/or second-order correction.
 Total Energy, E(TD-HF/TD-DFT) =  -232.021891627
 Copying the excited state density for this state as the 1-particle RhoCI density.

 The electronic state is 1-A.
 Alpha  occ. eigenvalues --  -10.20679 -10.20375 -10.20126 -10.19883 -10.19538
 Alpha  occ. eigenvalues --  -10.19109  -0.83178  -0.73736  -0.72624  -0.60449
 Alpha  occ. eigenvalues --   -0.58110  -0.50674  -0.46173  -0.43642  -0.40805
 Alpha  occ. eigenvalues --   -0.40608  -0.36259  -0.33854  -0.32268  -0.24512
 Alpha  occ. eigenvalues --   -0.23632
 Alpha virt. eigenvalues --   -0.01080  -0.00748   0.08054   0.11083   0.13889
 Alpha virt. eigenvalues --    0.15137   0.16162   0.17314   0.18739   0.27348
 Alpha virt. eigenvalues --    0.28167   0.29812   0.31413   0.47177   0.48849

 Mulliken charges:
               1
     1  C   -0.080546
     2  C   -0.085663
     3  C   -0.088127
     4  C   -0.096391
     5  C   -0.095151
     6  C   -0.093950
     7  H    0.086071
     8  H    0.089602
     9  H    0.094841
    10  H    0.098605
    11  H    0.077645
    12  H    0.093064
 Sum of Mulliken charges =  -0.00000

 Dipole moment (field-independent basis, Debye):
    X=             -0.0285    Y=             -0.1393    Z=              0.2196  Tot=              0.2617
 Quadrupole moment (field-independent basis, Debye-Ang):
   XX=            -30.4807   YY=            -32.5367   ZZ=            -38.8547
   XY=             -0.3042   XZ=              0.1574   YZ=             -0.3523

 Normal termination of Gaussian 16 at Fri Nov 10 20:07:57 2023.
