 Gaussian 16, Revision B.01,
 Gaussian 16:  EM64L-G16RevB.01 20-Dec-2017

 ---------------------------------
 # TD=(NStates=1) B3LYP/6-31G(d,p)
 ---------------------------------

 -------
 EMISPCT
 -------
 Symbolic Z-matrix:
 Charge =  0 Multiplicity = 1

                         Standard orientation:
 ---------------------------------------------------------------------
 Center     Atomic      Atomic             Coordinates (Angstroms)
 Number     Number       Type             X           Y           Z
 ---------------------------------------------------------------------
      1          6           0        0.956413    1.041710   -0.032184
      2          6           0       -0.477513    1.290478    0.074870
      3          6           0       -1.447305    0.285365   -0.113044
      4          6           0       -0.931753   -1.032303    0.021204
      5          6           0        0.423393   -1.286350   -0.024542
      6          6           0        1.453963   -0.308261    0.022275
      7          1           0        1.622079    1.972843   -0.423038
      8          1           0        2.428518   -0.361566    0.112852
      9          1           0        0.870998   -2.305733    0.075327
     10          1           0       -1.430890   -1.866978    0.151803
     11          1           0       -2.627312    0.368210   -0.132772
     12          1           0       -0.726576    2.249390    0.524361
 ---------------------------------------------------------------------

 SCF Done:  E(RB3LYP) =  -232.178703989     A.U. after   13 cycles

 Excitation energies and oscillator strengths:

 Excited State   1:      Singlet-A      4.7483 eV  261.11 nm  f=0.0064  <S**2>=0.000
      20 -> 22        -0.25277
      20 -> 23         0.31630
      21 -> 22         0.47525
      21 -> 23         0.33032
 This state for optimization and/or second-order correction.
 Total Energy, E(TD-HF/TD-DFT) =  -232.004207322
 Copying the excited state density for this state as the 1-particle RhoCI density.

 The electronic state is 1-A.
 Alpha  occ. eigenvalues --  -10.20809 -10.20558 -10.19788 -10.19005 -10.18615
 Alpha  occ. eigenvalues --  -10.18148  -0.83922  -0.74127  -0.73268  -0.60355
 Alpha  occ. eigenvalues --   -0.58877  -0.51884  -0.46699  -0.42992  -0.41893
 Alpha  occ. eigenvalues --   -0.40287  -0.35581  -0.35012  -0.32486  -0.24326
 Alpha  occ. eigenvalues --   -0.22685
 Alpha virt. eigenvalues --   -0.01427  -0.01031   0.08204   0.12173   0.13754
 Alpha virt. eigenvalues --    0.14499   0.16597   0.18307   0.19078   0.27797
 Alpha virt. eigenvalues --    0.29267   0.30066   0.32332   0.45860   0.48764

 Mulliken charges:
               1
     1  C   -0.115252
     2  C   -0.102783
     3  C   -0.090226
     4  C   -0.055716
     5  C   -0.099428
     6  C   -0.056713
     7  H    0.086234
     8  H    0.085835
     9  H    0.076600
    10  H    0.081413
    11  H    0.092256
    12  H    0.097780
 Sum of Mulliken charges =  -0.00000

 Dipole moment (field-independent basis, Debye):
    X=             -0.0004    Y=             -0.0867    Z=              0.2198  Tot=              0.2362
 Quadrupole moment (field-independent basis, Debye-Ang):
   XX=            -31.1702   YY=            -32.5712   ZZ=            -38.3707
   XY=              0.2930   XZ=             -0.4494   YZ=             -0.1449

 Normal termination of Gaussian 16 at Fri Nov 10 21:02:58 2023.
