 Gaussian 16, Revision B.01,
 Gaussian 16:  EM64L-G16RevB.01 20-Dec-2017

 ---------------------------------
 # TD=(NStates=1) B3LYP/6-31G(d,p)
 ---------------------------------

 -------
 EMISPCT
 -------
 Symbolic Z-matrix:
 Charge =  0 Multiplicity = 1

                         Standard orientation:
 ---------------------------------------------------------------------
 Center     Atomic      Atomic             Coordinates (Angstroms)
 Number     Number       Type             X           Y           Z
 ---------------------------------------------------------------------
      1          6           0        1.332444    0.560949    0.018853
      2          6           0        0.181469    1.412542    0.015850
      3          6           0       -1.191605    0.833533   -0.047667
      4          6           0       -1.370851   -0.560087   -0.022931
      5          6           0       -0.139140   -1.434976    0.100386
      6          6           0        1.126571   -0.840717   -0.123466
      7          1           0        2.361815    0.969210    0.361634
      8          1           0        2.239612   -1.353143   -0.310869
      9          1           0       -0.291739   -2.443506    0.280707
     10          1           0       -2.236716   -1.105464   -0.000949
     11          1           0       -1.854492    1.616629   -0.069602
     12          1           0        0.148200    2.488810    0.092934
 ---------------------------------------------------------------------

 SCF Done:  E(RB3LYP) =  -232.192540810     A.U. after   13 cycles

 Excitation energies and oscillator strengths:

 Excited State   1:      Singlet-A      4.8881 eV  253.64 nm  f=0.0002  <S**2>=0.000
      20 -> 22         0.48939
      21 -> 23         0.50786
 This state for optimization and/or second-order correction.
 Total Energy, E(TD-HF/TD-DFT) =  -232.012904997
 Copying the excited state density for this state as the 1-particle RhoCI density.

 The electronic state is 1-A.
 Alpha  occ. eigenvalues --  -10.21132 -10.20346 -10.20168 -10.19996 -10.19709
 Alpha  occ. eigenvalues --  -10.19417  -0.82609  -0.73457  -0.72708  -0.60206
 Alpha  occ. eigenvalues --   -0.59004  -0.50964  -0.47055  -0.42742  -0.41601
 Alpha  occ. eigenvalues --   -0.40727  -0.35053  -0.34599  -0.31955  -0.24217
 Alpha  occ. eigenvalues --   -0.23302
 Alpha virt. eigenvalues --   -0.01575  -0.00845   0.07532   0.12482   0.12544
 Alpha virt. eigenvalues --    0.14720   0.15748   0.18403   0.19406   0.25379
 Alpha virt. eigenvalues --    0.27820   0.30443   0.31466   0.46585   0.47872

 Mulliken charges:
               1
     1  C   -0.092251
     2  C   -0.097464
     3  C   -0.070665
     4  C   -0.090963
     5  C   -0.101083
     6  C   -0.078933
     7  H    0.097054
     8  H    0.076192
     9  H    0.095067
    10  H    0.091007
    11  H    0.085016
    12  H    0.087023
 Sum of Mulliken charges =  -0.00000

 Dipole moment (field-independent basis, Debye):
    X=             -0.1165    Y=              0.0305    Z=              0.2536  Tot=              0.2807
 Quadrupole moment (field-independent basis, Debye-Ang):
   XX=            -31.7122   YY=            -31.3518   ZZ=            -38.8922
   XY=              0.2979   XZ=              0.2548   YZ=              0.0471

 Normal termination of Gaussian 16 at Fri Nov 10 21:09:15 2023.
