 Gaussian 16, Revision B.01,
 Gaussian 16:  EM64L-G16RevB.01 20-Dec-2017

 ---------------------------------
 # TD=(NStates=1) B3LYP/6-31G(d,p)
 ---------------------------------

 -------
 EMISPCT
 -------
 Symbolic Z-matrix:
 Charge =  0 Multiplicity = 1

                         Standard orientation:
 ---------------------------------------------------------------------
 Center     Atomic      Atomic             Coordinates (Angstroms)
 Number     Number       Type             X           Y           Z
 ---------------------------------------------------------------------
      1          6           0       -1.104206   -0.983639   -0.136558
      2          6           0        0.278992   -1.322070   -0.050283
      3          6           0        1.403178   -0.489565    0.084239
      4          6           0        1.092601    0.946437   -0.091524
      5          6           0       -0.297753    1.431742    0.104307
      6          6           0       -1.364957    0.423292   -0.014875
      7          1           0       -1.927507   -1.629018    0.356272
      8          1           0       -2.399456    0.861722    0.226749
      9          1           0       -0.528628    2.261702   -0.136153
     10          1           0        1.846655    1.672078   -0.113382
     11          1           0        2.378074   -0.811675    0.184430
     12          1           0        0.583729   -2.391989    0.110247
 ---------------------------------------------------------------------

 SCF Done:  E(RB3LYP) =  -232.159576783     A.U. after   13 cycles

 Excitation energies and oscillator strengths:

 Excited State   1:      Singlet-A      4.7694 eV  259.96 nm  f=0.0034  <S**2>=0.000
      20 -> 22         0.50272
      20 -> 23        -0.16267
      21 -> 22         0.22661
      21 -> 23         0.41130
 This state for optimization and/or second-order correction.
 Total Energy, E(TD-HF/TD-DFT) =  -231.984302908
 Copying the excited state density for this state as the 1-particle RhoCI density.

 The electronic state is 1-A.
 Alpha  occ. eigenvalues --  -10.20712 -10.20523 -10.20404 -10.20314 -10.19752
 Alpha  occ. eigenvalues --  -10.18271  -0.82831  -0.73842  -0.73076  -0.60605
 Alpha  occ. eigenvalues --   -0.59258  -0.51350  -0.47235  -0.42887  -0.41930
 Alpha  occ. eigenvalues --   -0.41231  -0.34601  -0.33896  -0.32374  -0.24257
 Alpha  occ. eigenvalues --   -0.24048
 Alpha virt. eigenvalues --   -0.02815  -0.01215   0.08654   0.10902   0.14135
 Alpha virt. eigenvalues --    0.15684   0.16658   0.17948   0.20595   0.26240
 Alpha virt. eigenvalues --    0.26837   0.28937   0.30718   0.43732   0.45537

 Mulliken charges:
               1
     1  C   -0.101447
     2  C   -0.085286
     3  C   -0.068376
     4  C   -0.107532
     5  C   -0.052033
     6  C   -0.110041
     7  H    0.103759
     8  H    0.083766
     9  H    0.075408
    10  H    0.087611
    11  H    0.095740
    12  H    0.078431
 Sum of Mulliken charges =  -0.00000

 Dipole moment (field-independent basis, Debye):
    X=              0.3103    Y=              0.1247    Z=              0.3578  Tot=              0.4898
 Quadrupole moment (field-independent basis, Debye-Ang):
   XX=            -31.2420   YY=            -32.3882   ZZ=            -38.6643
   XY=             -0.4039   XZ=             -0.7411   YZ=             -1.1887

 Normal termination of Gaussian 16 at Fri Nov 10 21:34:47 2023.
