 Gaussian 16, Revision B.01,
 Gaussian 16:  EM64L-G16RevB.01 20-Dec-2017

 ---------------------------------
 # TD=(NStates=1) B3LYP/6-31G(d,p)
 ---------------------------------

 -------
 EMISPCT
 -------
 Symbolic Z-matrix:
 Charge =  0 Multiplicity = 1

                         Standard orientation:
 ---------------------------------------------------------------------
 Center     Atomic      Atomic             Coordinates (Angstroms)
 Number     Number       Type             X           Y           Z
 ---------------------------------------------------------------------
      1          6           0       -0.188468    1.421995    0.052570
      2          6           0        1.162759    0.814847   -0.057443
      3          6           0        1.311141   -0.543480    0.034037
      4          6           0        0.126934   -1.414037   -0.066362
      5          6           0       -1.079838   -0.867264    0.011169
      6          6           0       -1.358006    0.540843   -0.010825
      7          1           0       -0.174140    2.666238   -0.192746
      8          1           0       -2.325031    0.917859    0.222972
      9          1           0       -2.036384   -1.437190   -0.096846
     10          1           0        0.448450   -2.480540    0.078077
     11          1           0        2.308678   -0.907959    0.198305
     12          1           0        1.931294    1.524172    0.011363
 ---------------------------------------------------------------------

 SCF Done:  E(RB3LYP) =  -232.202656544     A.U. after   13 cycles

 Excitation energies and oscillator strengths:

 Excited State   1:      Singlet-A      5.1975 eV  238.55 nm  f=0.0012  <S**2>=0.000
      20 -> 22         0.53436
      21 -> 23         0.46238
 This state for optimization and/or second-order correction.
 Total Energy, E(TD-HF/TD-DFT) =  -232.011653139
 Copying the excited state density for this state as the 1-particle RhoCI density.

 The electronic state is 1-A.
 Alpha  occ. eigenvalues --  -10.21766 -10.20088 -10.19699 -10.19457 -10.19352
 Alpha  occ. eigenvalues --  -10.18912  -0.83786  -0.74402  -0.72592  -0.60022
 Alpha  occ. eigenvalues --   -0.58715  -0.50949  -0.45800  -0.43803  -0.41921
 Alpha  occ. eigenvalues --   -0.40011  -0.36020  -0.33256  -0.32183  -0.25237
 Alpha  occ. eigenvalues --   -0.23980
 Alpha virt. eigenvalues --   -0.02024   0.00158   0.07696   0.11235   0.13386
 Alpha virt. eigenvalues --    0.14715   0.16595   0.17621   0.18769   0.26325
 Alpha virt. eigenvalues --    0.27778   0.29482   0.33479   0.45781   0.47832

 Mulliken charges:
               1
     1  C   -0.102562
     2  C   -0.072323
     3  C   -0.092640
     4  C   -0.079505
     5  C   -0.084089
     6  C   -0.097142
     7  H    0.071612
     8  H    0.100056
     9  H    0.085244
    10  H    0.093263
    11  H    0.090359
    12  H    0.087728
 Sum of Mulliken charges =  -0.00000

 Dipole moment (field-independent basis, Debye):
    X=              0.1534    Y=             -0.0831    Z=              0.1693  Tot=              0.2431
 Quadrupole moment (field-independent basis, Debye-Ang):
   XX=            -31.2510   YY=            -32.2296   ZZ=            -38.8535
   XY=             -0.0768   XZ=              0.1604   YZ=             -0.4061

 Normal termination of Gaussian 16 at Fri Nov 10 20:41:53 2023.
