 Gaussian 16, Revision B.01,
 Gaussian 16:  EM64L-G16RevB.01 20-Dec-2017

 ---------------------------------
 # TD=(NStates=1) B3LYP/6-31G(d,p)
 ---------------------------------

 -------
 EMISPCT
 -------
 Symbolic Z-matrix:
 Charge =  0 Multiplicity = 1

                         Standard orientation:
 ---------------------------------------------------------------------
 Center     Atomic      Atomic             Coordinates (Angstroms)
 Number     Number       Type             X           Y           Z
 ---------------------------------------------------------------------
      1          6           0       -1.216807   -0.793762   -0.016471
      2          6           0       -1.309457    0.643782   -0.009188
      3          6           0       -0.051186    1.408522   -0.080452
      4          6           0        1.245008    0.767675    0.016106
      5          6           0        1.324207   -0.644581   -0.004111
      6          6           0        0.060102   -1.414175    0.036911
      7          1           0       -2.173557   -1.238813    0.101446
      8          1           0        0.044143   -2.521183   -0.028289
      9          1           0        2.242974   -1.241720   -0.149470
     10          1           0        2.190090    1.481209    0.214015
     11          1           0       -0.351236    2.595227    0.123093
     12          1           0       -2.263610    1.120515    0.082427
 ---------------------------------------------------------------------

 SCF Done:  E(RB3LYP) =  -232.207028098     A.U. after   13 cycles

 Excitation energies and oscillator strengths:

 Excited State   1:      Singlet-A      5.0187 eV  247.05 nm  f=0.0003  <S**2>=0.000
      20 -> 22         0.49311
      21 -> 22         0.10105
      21 -> 23        -0.49013
 This state for optimization and/or second-order correction.
 Total Energy, E(TD-HF/TD-DFT) =  -232.022595424
 Copying the excited state density for this state as the 1-particle RhoCI density.

 The electronic state is 1-A.
 Alpha  occ. eigenvalues --  -10.21630 -10.21557 -10.20884 -10.20486 -10.19916
 Alpha  occ. eigenvalues --  -10.19428  -0.82587  -0.73668  -0.72009  -0.59342
 Alpha  occ. eigenvalues --   -0.58735  -0.49933  -0.46119  -0.43103  -0.41669
 Alpha  occ. eigenvalues --   -0.39494  -0.35486  -0.33996  -0.32022  -0.24722
 Alpha  occ. eigenvalues --   -0.23735
 Alpha virt. eigenvalues --   -0.01727  -0.00738   0.07160   0.11752   0.12854
 Alpha virt. eigenvalues --    0.13879   0.14634   0.16347   0.18973   0.26414
 Alpha virt. eigenvalues --    0.28047   0.28587   0.30442   0.47718   0.48100

 Mulliken charges:
               1
     1  C   -0.072043
     2  C   -0.092593
     3  C   -0.088724
     4  C   -0.097587
     5  C   -0.090946
     6  C   -0.102156
     7  H    0.089137
     8  H    0.089884
     9  H    0.101418
    10  H    0.092967
    11  H    0.075854
    12  H    0.094789
 Sum of Mulliken charges =  -0.00000

 Dipole moment (field-independent basis, Debye):
    X=             -0.2051    Y=             -0.1465    Z=              0.2015  Tot=              0.3227
 Quadrupole moment (field-independent basis, Debye-Ang):
   XX=            -30.8871   YY=            -32.2133   ZZ=            -39.3016
   XY=             -0.5333   XZ=             -0.3344   YZ=              0.7511

 Normal termination of Gaussian 16 at Fri Nov 10 21:30:42 2023.
