 Gaussian 16, Revision B.01,
 Gaussian 16:  EM64L-G16RevB.01 20-Dec-2017

 ---------------------------------
 # TD=(NStates=1) B3LYP/6-31G(d,p)
 ---------------------------------

 -------
 EMISPCT
 -------
 Symbolic Z-matrix:
 Charge =  0 Multiplicity = 1

                         Standard orientation:
 ---------------------------------------------------------------------
 Center     Atomic      Atomic             Coordinates (Angstroms)
 Number     Number       Type             X           Y           Z
 ---------------------------------------------------------------------
      1          6           0       -1.360507   -0.419246   -0.012361
      2          6           0       -1.028567    1.042734   -0.022702
      3          6           0        0.359253    1.340747   -0.057725
      4          6           0        1.416458    0.383948    0.043142
      5          6           0        1.011199   -1.017567    0.062628
      6          6           0       -0.373263   -1.381536   -0.080832
      7          1           0       -2.561713   -0.615969    0.096099
      8          1           0       -0.670762   -2.406241    0.240142
      9          1           0        1.890592   -1.582285   -0.158158
     10          1           0        2.464851    0.686882   -0.063500
     11          1           0        0.626377    2.400266    0.147983
     12          1           0       -1.896785    1.822869    0.144533
 ---------------------------------------------------------------------

 SCF Done:  E(RB3LYP) =  -232.203727687     A.U. after   13 cycles

 Excitation energies and oscillator strengths:

 Excited State   1:      Singlet-A      5.0425 eV  245.88 nm  f=0.0002  <S**2>=0.000
      20 -> 22         0.49930
      21 -> 23         0.49437
 This state for optimization and/or second-order correction.
 Total Energy, E(TD-HF/TD-DFT) =  -232.018417932
 Copying the excited state density for this state as the 1-particle RhoCI density.

 The electronic state is 1-A.
 Alpha  occ. eigenvalues --  -10.21366 -10.21276 -10.20098 -10.20053 -10.19981
 Alpha  occ. eigenvalues --  -10.19896  -0.83121  -0.73684  -0.72628  -0.59572
 Alpha  occ. eigenvalues --   -0.58433  -0.50108  -0.45567  -0.43601  -0.40984
 Alpha  occ. eigenvalues --   -0.40127  -0.35577  -0.34625  -0.31112  -0.25113
 Alpha  occ. eigenvalues --   -0.23878
 Alpha virt. eigenvalues --   -0.02116  -0.00720   0.07080   0.12067   0.12834
 Alpha virt. eigenvalues --    0.13399   0.15898   0.16779   0.18296   0.25923
 Alpha virt. eigenvalues --    0.27255   0.29110   0.32190   0.45851   0.47778

 Mulliken charges:
               1
     1  C   -0.084010
     2  C   -0.090692
     3  C   -0.085789
     4  C   -0.096183
     5  C   -0.096233
     6  C   -0.098374
     7  H    0.081476
     8  H    0.096361
     9  H    0.095841
    10  H    0.099104
    11  H    0.080355
    12  H    0.098144
 Sum of Mulliken charges =  -0.00000

 Dipole moment (field-independent basis, Debye):
    X=              0.0546    Y=              0.1914    Z=              0.2284  Tot=              0.3029
 Quadrupole moment (field-independent basis, Debye-Ang):
   XX=            -30.7365   YY=            -32.8552   ZZ=            -39.0970
   XY=             -0.3033   XZ=             -0.9426   YZ=              0.1324

 Normal termination of Gaussian 16 at Fri Nov 10 19:52:00 2023.
