 Gaussian 16, Revision B.01,
 Gaussian 16:  EM64L-G16RevB.01 20-Dec-2017

 ---------------------------------
 # TD=(NStates=1) B3LYP/6-31G(d,p)
 ---------------------------------

 -------
 EMISPCT
 -------
 Symbolic Z-matrix:
 Charge =  0 Multiplicity = 1

                         Standard orientation:
 ---------------------------------------------------------------------
 Center     Atomic      Atomic             Coordinates (Angstroms)
 Number     Number       Type             X           Y           Z
 ---------------------------------------------------------------------
      1          6           0        1.335929    0.498864   -0.022756
      2          6           0        1.161957   -0.893915   -0.024840
      3          6           0       -0.191626   -1.375917   -0.028731
      4          6           0       -1.404295   -0.534709   -0.017905
      5          6           0       -1.160155    0.871949   -0.024840
      6          6           0        0.212527    1.411687    0.013203
      7          1           0        2.326982    0.987875   -0.096249
      8          1           0        0.524505    2.530338    0.336132
      9          1           0       -2.023675    1.466039   -0.088649
     10          1           0       -2.456321   -0.936892    0.089807
     11          1           0       -0.317977   -2.422165    0.316910
     12          1           0        2.220462   -1.492953    0.077267
 ---------------------------------------------------------------------

 SCF Done:  E(RB3LYP) =  -232.203932394     A.U. after   13 cycles

 Excitation energies and oscillator strengths:

 Excited State   1:      Singlet-A      5.0038 eV  247.78 nm  f=0.0001  <S**2>=0.000
      20 -> 22         0.49354
      21 -> 23         0.50574
 This state for optimization and/or second-order correction.
 Total Energy, E(TD-HF/TD-DFT) =  -232.020046045
 Copying the excited state density for this state as the 1-particle RhoCI density.

 The electronic state is 1-A.
 Alpha  occ. eigenvalues --  -10.21330 -10.21089 -10.21001 -10.20548 -10.20154
 Alpha  occ. eigenvalues --  -10.19784  -0.82689  -0.73804  -0.71860  -0.59347
 Alpha  occ. eigenvalues --   -0.58479  -0.49929  -0.45544  -0.43193  -0.41401
 Alpha  occ. eigenvalues --   -0.39397  -0.35672  -0.34178  -0.31968  -0.24875
 Alpha  occ. eigenvalues --   -0.23522
 Alpha virt. eigenvalues --   -0.01867  -0.00630   0.06817   0.11019   0.12628
 Alpha virt. eigenvalues --    0.13441   0.16017   0.16986   0.17648   0.26436
 Alpha virt. eigenvalues --    0.27583   0.29576   0.30276   0.45691   0.48139

 Mulliken charges:
               1
     1  C   -0.083793
     2  C   -0.077225
     3  C   -0.116511
     4  C   -0.088310
     5  C   -0.094045
     6  C   -0.092547
     7  H    0.089155
     8  H    0.088834
     9  H    0.090645
    10  H    0.103674
    11  H    0.087287
    12  H    0.092836
 Sum of Mulliken charges =  -0.00000

 Dipole moment (field-independent basis, Debye):
    X=             -0.0310    Y=              0.0844    Z=              0.3825  Tot=              0.3929
 Quadrupole moment (field-independent basis, Debye-Ang):
   XX=            -30.3279   YY=            -32.9112   ZZ=            -39.1934
   XY=              0.3203   XZ=             -0.0091   YZ=             -0.2850

 Normal termination of Gaussian 16 at Fri Nov 10 21:54:16 2023.
