 Gaussian 16, Revision B.01,
 Gaussian 16:  EM64L-G16RevB.01 20-Dec-2017

 ---------------------------------
 # TD=(NStates=1) B3LYP/6-31G(d,p)
 ---------------------------------

 -------
 EMISPCT
 -------
 Symbolic Z-matrix:
 Charge =  0 Multiplicity = 1

                         Standard orientation:
 ---------------------------------------------------------------------
 Center     Atomic      Atomic             Coordinates (Angstroms)
 Number     Number       Type             X           Y           Z
 ---------------------------------------------------------------------
      1          6           0       -0.607015   -1.300531   -0.123121
      2          6           0        0.825646   -1.167682   -0.013741
      3          6           0        1.495584    0.130699    0.018320
      4          6           0        0.627037    1.274719   -0.000518
      5          6           0       -0.787532    1.147141   -0.013966
      6          6           0       -1.534998   -0.101849    0.073951
      7          1           0       -1.155784   -2.234522    0.284551
      8          1           0       -2.575399   -0.161357   -0.021315
      9          1           0       -1.572959    2.114094   -0.048308
     10          1           0        1.095517    2.262755   -0.007140
     11          1           0        2.655127    0.093587    0.054990
     12          1           0        1.441167   -1.969537    0.091676
 ---------------------------------------------------------------------

 SCF Done:  E(RB3LYP) =  -232.189381089     A.U. after   13 cycles

 Excitation energies and oscillator strengths:

 Excited State   1:      Singlet-A      4.8559 eV  255.33 nm  f=0.0034  <S**2>=0.000
      20 -> 22         0.54444
      21 -> 23        -0.44512
 This state for optimization and/or second-order correction.
 Total Energy, E(TD-HF/TD-DFT) =  -232.010928866
 Copying the excited state density for this state as the 1-particle RhoCI density.

 The electronic state is 1-A.
 Alpha  occ. eigenvalues --  -10.21552 -10.21289 -10.21052 -10.20699 -10.20582
 Alpha  occ. eigenvalues --  -10.19723  -0.82337  -0.73016  -0.72514  -0.59680
 Alpha  occ. eigenvalues --   -0.58477  -0.50733  -0.45991  -0.43193  -0.41100
 Alpha  occ. eigenvalues --   -0.39789  -0.35908  -0.34324  -0.30826  -0.24373
 Alpha  occ. eigenvalues --   -0.24076
 Alpha virt. eigenvalues --   -0.02639  -0.00980   0.07318   0.11741   0.12374
 Alpha virt. eigenvalues --    0.13884   0.15521   0.17145   0.18182   0.24327
 Alpha virt. eigenvalues --    0.26982   0.28563   0.30988   0.45400   0.47865

 Mulliken charges:
               1
     1  C   -0.116686
     2  C   -0.076036
     3  C   -0.090895
     4  C   -0.088635
     5  C   -0.078650
     6  C   -0.094484
     7  H    0.086412
     8  H    0.106442
     9  H    0.067686
    10  H    0.095129
    11  H    0.099772
    12  H    0.089946
 Sum of Mulliken charges =  -0.00000

 Dipole moment (field-independent basis, Debye):
    X=              0.1843    Y=              0.0517    Z=              0.2292  Tot=              0.2986
 Quadrupole moment (field-independent basis, Debye-Ang):
   XX=            -30.0824   YY=            -33.1349   ZZ=            -39.3089
   XY=             -0.1914   XZ=              0.0301   YZ=             -0.7685

 Normal termination of Gaussian 16 at Fri Nov 10 22:43:07 2023.
