 Gaussian 16, Revision B.01,
 Gaussian 16:  EM64L-G16RevB.01 20-Dec-2017

 ---------------------------------
 # TD=(NStates=1) B3LYP/6-31G(d,p)
 ---------------------------------

 -------
 EMISPCT
 -------
 Symbolic Z-matrix:
 Charge =  0 Multiplicity = 1

                         Standard orientation:
 ---------------------------------------------------------------------
 Center     Atomic      Atomic             Coordinates (Angstroms)
 Number     Number       Type             X           Y           Z
 ---------------------------------------------------------------------
      1          6           0       -0.507343    1.320859    0.002468
      2          6           0        0.869640    1.110212    0.061340
      3          6           0        1.469717   -0.268167   -0.003956
      4          6           0        0.564026   -1.319518   -0.016047
      5          6           0       -0.934436   -1.062711   -0.045060
      6          6           0       -1.419899    0.220245   -0.016796
      7          1           0       -1.006812    2.369276   -0.185501
      8          1           0       -2.513294    0.224061    0.170433
      9          1           0       -1.694571   -1.982599    0.111202
     10          1           0        0.864304   -2.329527    0.124674
     11          1           0        2.462264   -0.276027   -0.136539
     12          1           0        1.637874    1.989287    0.024043
 ---------------------------------------------------------------------

 SCF Done:  E(RB3LYP) =  -232.206464171     A.U. after   12 cycles

 Excitation energies and oscillator strengths:

 Excited State   1:      Singlet-A      5.1536 eV  240.58 nm  f=0.0005  <S**2>=0.000
      20 -> 22         0.48374
      21 -> 22        -0.10710
      21 -> 23         0.49831
 This state for optimization and/or second-order correction.
 Total Energy, E(TD-HF/TD-DFT) =  -232.017071599
 Copying the excited state density for this state as the 1-particle RhoCI density.

 The electronic state is 1-A.
 Alpha  occ. eigenvalues --  -10.20760 -10.20649 -10.20490 -10.20014 -10.19498
 Alpha  occ. eigenvalues --  -10.19408  -0.83173  -0.74280  -0.72291  -0.60008
 Alpha  occ. eigenvalues --   -0.58429  -0.50373  -0.46380  -0.43295  -0.41925
 Alpha  occ. eigenvalues --   -0.39787  -0.34752  -0.34184  -0.32861  -0.24717
 Alpha  occ. eigenvalues --   -0.23960
 Alpha virt. eigenvalues --   -0.01033  -0.00640   0.07473   0.11852   0.13430
 Alpha virt. eigenvalues --    0.14279   0.15900   0.17508   0.18174   0.25346
 Alpha virt. eigenvalues --    0.28276   0.30569   0.31780   0.46022   0.49060

 Mulliken charges:
               1
     1  C   -0.087349
     2  C   -0.106871
     3  C   -0.062934
     4  C   -0.099427
     5  C   -0.092507
     6  C   -0.078156
     7  H    0.087384
     8  H    0.094309
     9  H    0.080581
    10  H    0.089753
    11  H    0.090736
    12  H    0.084482
 Sum of Mulliken charges =  -0.00000

 Dipole moment (field-independent basis, Debye):
    X=              0.0747    Y=             -0.0793    Z=              0.0615  Tot=              0.1251
 Quadrupole moment (field-independent basis, Debye-Ang):
   XX=            -30.8888   YY=            -32.3085   ZZ=            -39.0209
   XY=              0.3199   XZ=             -0.5602   YZ=             -0.7146

 Normal termination of Gaussian 16 at Fri Nov 10 21:19:25 2023.
