 Gaussian 16, Revision B.01,
 Gaussian 16:  EM64L-G16RevB.01 20-Dec-2017

 ---------------------------------
 # TD=(NStates=1) B3LYP/6-31G(d,p)
 ---------------------------------

 -------
 EMISPCT
 -------
 Symbolic Z-matrix:
 Charge =  0 Multiplicity = 1

                         Standard orientation:
 ---------------------------------------------------------------------
 Center     Atomic      Atomic             Coordinates (Angstroms)
 Number     Number       Type             X           Y           Z
 ---------------------------------------------------------------------
      1          6           0       -1.063093   -0.951945    0.007054
      2          6           0        0.299703   -1.363991   -0.064644
      3          6           0        1.356309   -0.426648    0.054925
      4          6           0        1.107210    0.937593   -0.045021
      5          6           0       -0.295066    1.375209   -0.055515
      6          6           0       -1.381707    0.433193    0.010183
      7          1           0       -1.918937   -1.656490    0.202890
      8          1           0       -2.507599    0.896117    0.198882
      9          1           0       -0.371208    2.419557   -0.147072
     10          1           0        1.789616    1.698618    0.337507
     11          1           0        2.382289   -0.939838    0.129445
     12          1           0        0.485709   -2.438425   -0.163545
 ---------------------------------------------------------------------

 SCF Done:  E(RB3LYP) =  -232.218868243     A.U. after   13 cycles

 Excitation energies and oscillator strengths:

 Excited State   1:      Singlet-A      5.1315 eV  241.61 nm  f=0.0009  <S**2>=0.000
      20 -> 22         0.49238
      20 -> 23        -0.12259
      21 -> 22         0.16602
      21 -> 23         0.46327
 This state for optimization and/or second-order correction.
 Total Energy, E(TD-HF/TD-DFT) =  -232.030287977
 Copying the excited state density for this state as the 1-particle RhoCI density.

 The electronic state is 1-A.
 Alpha  occ. eigenvalues --  -10.21162 -10.20221 -10.20024 -10.19763 -10.19679
 Alpha  occ. eigenvalues --  -10.19575  -0.83486  -0.73570  -0.73033  -0.59623
 Alpha  occ. eigenvalues --   -0.58841  -0.50379  -0.45980  -0.43210  -0.40986
 Alpha  occ. eigenvalues --   -0.40410  -0.36530  -0.33250  -0.32703  -0.24909
 Alpha  occ. eigenvalues --   -0.23927
 Alpha virt. eigenvalues --   -0.01605  -0.00325   0.07890   0.11682   0.12424
 Alpha virt. eigenvalues --    0.15223   0.15784   0.17382   0.18431   0.27082
 Alpha virt. eigenvalues --    0.28938   0.29786   0.31681   0.46321   0.49842

 Mulliken charges:
               1
     1  C   -0.093079
     2  C   -0.087345
     3  C   -0.079118
     4  C   -0.106390
     5  C   -0.095118
     6  C   -0.081169
     7  H    0.093825
     8  H    0.083271
     9  H    0.091441
    10  H    0.097154
    11  H    0.086170
    12  H    0.090358
 Sum of Mulliken charges =  -0.00000

 Dipole moment (field-independent basis, Debye):
    X=             -0.0520    Y=             -0.0439    Z=              0.3456  Tot=              0.3522
 Quadrupole moment (field-independent basis, Debye-Ang):
   XX=            -32.1953   YY=            -31.3147   ZZ=            -38.8878
   XY=             -0.0893   XZ=              0.0209   YZ=              0.3208

 Normal termination of Gaussian 16 at Fri Nov 10 20:47:41 2023.
