 Gaussian 16, Revision B.01,
 Gaussian 16:  EM64L-G16RevB.01 20-Dec-2017

 ---------------------------------
 # TD=(NStates=1) B3LYP/6-31G(d,p)
 ---------------------------------

 -------
 EMISPCT
 -------
 Symbolic Z-matrix:
 Charge =  0 Multiplicity = 1

                         Standard orientation:
 ---------------------------------------------------------------------
 Center     Atomic      Atomic             Coordinates (Angstroms)
 Number     Number       Type             X           Y           Z
 ---------------------------------------------------------------------
      1          6           0        0.563602   -1.273727   -0.040535
      2          6           0        1.444592   -0.140059    0.121050
      3          6           0        0.828643    1.112791   -0.076462
      4          6           0       -0.556297    1.301285    0.013484
      5          6           0       -1.435018    0.145604    0.002120
      6          6           0       -0.836242   -1.174485   -0.015464
      7          1           0        1.031662   -2.249889    0.158595
      8          1           0       -1.519156   -1.911061   -0.133425
      9          1           0       -2.551877    0.291254    0.125777
     10          1           0       -0.959326    2.354812    0.041926
     11          1           0        1.413654    1.929402   -0.000067
     12          1           0        2.529359   -0.242972   -0.217970
 ---------------------------------------------------------------------

 SCF Done:  E(RB3LYP) =  -232.217509640     A.U. after   13 cycles

 Excitation energies and oscillator strengths:

 Excited State   1:      Singlet-A      5.1178 eV  242.26 nm  f=0.0023  <S**2>=0.000
      20 -> 22         0.51062
      20 -> 23         0.12514
      21 -> 22        -0.17618
      21 -> 23         0.43843
 This state for optimization and/or second-order correction.
 Total Energy, E(TD-HF/TD-DFT) =  -232.029435013
 Copying the excited state density for this state as the 1-particle RhoCI density.

 The electronic state is 1-A.
 Alpha  occ. eigenvalues --  -10.20564 -10.19872 -10.19767 -10.19728 -10.19133
 Alpha  occ. eigenvalues --  -10.18259  -0.83602  -0.74303  -0.72809  -0.59987
 Alpha  occ. eigenvalues --   -0.59370  -0.51001  -0.46765  -0.43349  -0.41418
 Alpha  occ. eigenvalues --   -0.40479  -0.35694  -0.34281  -0.32587  -0.24858
 Alpha  occ. eigenvalues --   -0.24197
 Alpha virt. eigenvalues --   -0.01937  -0.00310   0.08897   0.12757   0.14291
 Alpha virt. eigenvalues --    0.14774   0.16804   0.18017   0.19350   0.26799
 Alpha virt. eigenvalues --    0.29126   0.29758   0.31685   0.44754   0.47012

 Mulliken charges:
               1
     1  C   -0.099387
     2  C   -0.109500
     3  C   -0.068660
     4  C   -0.085516
     5  C   -0.101765
     6  C   -0.064732
     7  H    0.086154
     8  H    0.089860
     9  H    0.090442
    10  H    0.086961
    11  H    0.082225
    12  H    0.093918
 Sum of Mulliken charges =  -0.00000

 Dipole moment (field-independent basis, Debye):
    X=             -0.2099    Y=              0.0876    Z=             -0.0565  Tot=              0.2344
 Quadrupole moment (field-independent basis, Debye-Ang):
   XX=            -31.3752   YY=            -31.9257   ZZ=            -38.7266
   XY=              0.2717   XZ=             -0.4944   YZ=              0.0945

 Normal termination of Gaussian 16 at Fri Nov 10 22:06:34 2023.
