 Gaussian 16, Revision B.01,
 Gaussian 16:  EM64L-G16RevB.01 20-Dec-2017

 ---------------------------------
 # TD=(NStates=1) B3LYP/6-31G(d,p)
 ---------------------------------

 -------
 EMISPCT
 -------
 Symbolic Z-matrix:
 Charge =  0 Multiplicity = 1

                         Standard orientation:
 ---------------------------------------------------------------------
 Center     Atomic      Atomic             Coordinates (Angstroms)
 Number     Number       Type             X           Y           Z
 ---------------------------------------------------------------------
      1          6           0       -0.148021    1.429923    0.014105
      2          6           0       -1.270687    0.578107    0.028516
      3          6           0       -1.199223   -0.815024   -0.044552
      4          6           0        0.130389   -1.358661   -0.007172
      5          6           0        1.290275   -0.587669   -0.046899
      6          6           0        1.209508    0.784599    0.011051
      7          1           0       -0.293921    2.515010    0.058843
      8          1           0        2.156791    1.331106    0.008884
      9          1           0        2.244690   -1.140029   -0.184501
     10          1           0        0.311580   -2.316060    0.588967
     11          1           0       -2.083457   -1.569199   -0.187858
     12          1           0       -2.409128    0.991516   -0.014628
 ---------------------------------------------------------------------

 SCF Done:  E(RB3LYP) =  -232.206580416     A.U. after   13 cycles

 Excitation energies and oscillator strengths:

 Excited State   1:      Singlet-A      5.0229 eV  246.84 nm  f=0.0023  <S**2>=0.000
      20 -> 22         0.49605
      21 -> 22        -0.15094
      21 -> 23        -0.47760
 This state for optimization and/or second-order correction.
 Total Energy, E(TD-HF/TD-DFT) =  -232.021991679
 Copying the excited state density for this state as the 1-particle RhoCI density.

 The electronic state is 1-A.
 Alpha  occ. eigenvalues --  -10.20743 -10.20632 -10.20360 -10.20200 -10.19236
 Alpha  occ. eigenvalues --  -10.18995  -0.83932  -0.74344  -0.72561  -0.60291
 Alpha  occ. eigenvalues --   -0.57831  -0.50430  -0.45266  -0.43378  -0.41418
 Alpha  occ. eigenvalues --   -0.40418  -0.36878  -0.33556  -0.32021  -0.25355
 Alpha  occ. eigenvalues --   -0.23012
 Alpha virt. eigenvalues --   -0.02497   0.00384   0.07473   0.11591   0.13011
 Alpha virt. eigenvalues --    0.14853   0.15737   0.16251   0.17881   0.26912
 Alpha virt. eigenvalues --    0.28172   0.31046   0.32425   0.46627   0.47709

 Mulliken charges:
               1
     1  C   -0.100939
     2  C   -0.077361
     3  C   -0.091456
     4  C   -0.105150
     5  C   -0.077765
     6  C   -0.091479
     7  H    0.098694
     8  H    0.089779
     9  H    0.093516
    10  H    0.089297
    11  H    0.098957
    12  H    0.073910
 Sum of Mulliken charges =  -0.00000

 Dipole moment (field-independent basis, Debye):
    X=              0.1244    Y=              0.0755    Z=              0.1444  Tot=              0.2050
 Quadrupole moment (field-independent basis, Debye-Ang):
   XX=            -31.4545   YY=            -32.5118   ZZ=            -38.7043
   XY=              0.1784   XZ=              0.1810   YZ=             -0.4947

 Normal termination of Gaussian 16 at Fri Nov 10 21:11:53 2023.
