 Gaussian 16, Revision B.01,
 Gaussian 16:  EM64L-G16RevB.01 20-Dec-2017

 ---------------------------------
 # TD=(NStates=1) B3LYP/6-31G(d,p)
 ---------------------------------

 -------
 EMISPCT
 -------
 Symbolic Z-matrix:
 Charge =  0 Multiplicity = 1

                         Standard orientation:
 ---------------------------------------------------------------------
 Center     Atomic      Atomic             Coordinates (Angstroms)
 Number     Number       Type             X           Y           Z
 ---------------------------------------------------------------------
      1          6           0       -1.048197   -0.980246    0.147152
      2          6           0        0.319174   -1.360607   -0.010522
      3          6           0        1.383418   -0.449774   -0.085662
      4          6           0        1.080732    0.975445    0.115660
      5          6           0       -0.355784    1.381002   -0.093744
      6          6           0       -1.381142    0.412612   -0.132465
      7          1           0       -1.805634   -1.588599    0.259771
      8          1           0       -2.482100    0.760479    0.209747
      9          1           0       -0.419114    2.432110   -0.172577
     10          1           0        1.871576    1.804188    0.453089
     11          1           0        2.408851   -0.856395   -0.076171
     12          1           0        0.437221   -2.422369   -0.316379
 ---------------------------------------------------------------------

 SCF Done:  E(RB3LYP) =  -232.187997155     A.U. after   14 cycles

 Excitation energies and oscillator strengths:

 Excited State   1:      Singlet-A      4.7978 eV  258.42 nm  f=0.0008  <S**2>=0.000
      20 -> 22        -0.47827
      21 -> 23         0.50688
 This state for optimization and/or second-order correction.
 Total Energy, E(TD-HF/TD-DFT) =  -232.011681466
 Copying the excited state density for this state as the 1-particle RhoCI density.

 The electronic state is 1-A.
 Alpha  occ. eigenvalues --  -10.21818 -10.20747 -10.20356 -10.20250 -10.19658
 Alpha  occ. eigenvalues --  -10.18859  -0.82822  -0.73360  -0.72648  -0.59718
 Alpha  occ. eigenvalues --   -0.58643  -0.51046  -0.46077  -0.42872  -0.41021
 Alpha  occ. eigenvalues --   -0.40502  -0.36491  -0.34287  -0.31184  -0.24700
 Alpha  occ. eigenvalues --   -0.23179
 Alpha virt. eigenvalues --   -0.02360  -0.01132   0.08367   0.11022   0.12844
 Alpha virt. eigenvalues --    0.14341   0.16585   0.16892   0.18979   0.25644
 Alpha virt. eigenvalues --    0.27718   0.28456   0.32135   0.46134   0.47766

 Mulliken charges:
               1
     1  C   -0.068369
     2  C   -0.088129
     3  C   -0.090842
     4  C   -0.106896
     5  C   -0.083111
     6  C   -0.106012
     7  H    0.085249
     8  H    0.082117
     9  H    0.097131
    10  H    0.093951
    11  H    0.095422
    12  H    0.089489
 Sum of Mulliken charges =  -0.00000

 Dipole moment (field-independent basis, Debye):
    X=              0.0937    Y=              0.0308    Z=              0.2341  Tot=              0.2540
 Quadrupole moment (field-independent basis, Debye-Ang):
   XX=            -31.9877   YY=            -31.5173   ZZ=            -38.8255
   XY=              0.5866   XZ=             -0.3787   YZ=              0.7329

 Normal termination of Gaussian 16 at Fri Nov 10 22:22:14 2023.
