 Gaussian 16, Revision B.01,
 Gaussian 16:  EM64L-G16RevB.01 20-Dec-2017

 ---------------------------------
 # TD=(NStates=1) B3LYP/6-31G(d,p)
 ---------------------------------

 -------
 EMISPCT
 -------
 Symbolic Z-matrix:
 Charge =  0 Multiplicity = 1

                         Standard orientation:
 ---------------------------------------------------------------------
 Center     Atomic      Atomic             Coordinates (Angstroms)
 Number     Number       Type             X           Y           Z
 ---------------------------------------------------------------------
      1          6           0        1.017590    1.011635    0.022658
      2          6           0       -0.410984    1.336770   -0.069778
      3          6           0       -1.385492    0.359087    0.087890
      4          6           0       -1.054754   -1.028563   -0.051579
      5          6           0        0.378442   -1.302135   -0.016789
      6          6           0        1.443659   -0.386323   -0.057228
      7          1           0        1.658571    1.750858    0.085341
      8          1           0        2.594904   -0.580104    0.206795
      9          1           0        0.618316   -2.271180    0.337117
     10          1           0       -1.662207   -1.919990   -0.301884
     11          1           0       -2.452326    0.662986    0.360383
     12          1           0       -0.688022    2.414602   -0.178791
 ---------------------------------------------------------------------

 SCF Done:  E(RB3LYP) =  -232.194817816     A.U. after   14 cycles

 Excitation energies and oscillator strengths:

 Excited State   1:      Singlet-A      4.7482 eV  261.12 nm  f=0.0073  <S**2>=0.000
      20 -> 22         0.39717
      20 -> 23        -0.19466
      21 -> 22         0.38733
      21 -> 23         0.39167
 This state for optimization and/or second-order correction.
 Total Energy, E(TD-HF/TD-DFT) =  -232.020323822
 Copying the excited state density for this state as the 1-particle RhoCI density.

 The electronic state is 1-A.
 Alpha  occ. eigenvalues --  -10.20600 -10.20459 -10.20405 -10.19822 -10.19210
 Alpha  occ. eigenvalues --  -10.19103  -0.83118  -0.73541  -0.72892  -0.60385
 Alpha  occ. eigenvalues --   -0.58324  -0.50543  -0.46979  -0.43042  -0.41305
 Alpha  occ. eigenvalues --   -0.40120  -0.36649  -0.33743  -0.32588  -0.24419
 Alpha  occ. eigenvalues --   -0.22705
 Alpha virt. eigenvalues --   -0.02109  -0.00443   0.08337   0.10683   0.13715
 Alpha virt. eigenvalues --    0.14961   0.16068   0.17882   0.19174   0.26734
 Alpha virt. eigenvalues --    0.28373   0.29465   0.32455   0.46131   0.46832

 Mulliken charges:
               1
     1  C   -0.077086
     2  C   -0.087441
     3  C   -0.089774
     4  C   -0.097572
     5  C   -0.100985
     6  C   -0.090992
     7  H    0.080353
     8  H    0.089420
     9  H    0.088154
    10  H    0.107732
    11  H    0.089285
    12  H    0.088904
 Sum of Mulliken charges =  -0.00000

 Dipole moment (field-independent basis, Debye):
    X=             -0.0588    Y=              0.0979    Z=              0.3032  Tot=              0.3240
 Quadrupole moment (field-independent basis, Debye-Ang):
   XX=            -31.6853   YY=            -31.6895   ZZ=            -38.6867
   XY=              0.5585   XZ=              0.6147   YZ=             -0.1993

 Normal termination of Gaussian 16 at Fri Nov 10 22:37:15 2023.
