 Gaussian 16, Revision B.01,
 Gaussian 16:  EM64L-G16RevB.01 20-Dec-2017

 ---------------------------------
 # TD=(NStates=1) B3LYP/6-31G(d,p)
 ---------------------------------

 -------
 EMISPCT
 -------
 Symbolic Z-matrix:
 Charge =  0 Multiplicity = 1

                         Standard orientation:
 ---------------------------------------------------------------------
 Center     Atomic      Atomic             Coordinates (Angstroms)
 Number     Number       Type             X           Y           Z
 ---------------------------------------------------------------------
      1          6           0       -1.493074   -0.143805   -0.008418
      2          6           0       -0.552122   -1.243001   -0.005700
      3          6           0        0.803023   -1.109837    0.116156
      4          6           0        1.461828    0.131070   -0.010296
      5          6           0        0.579865    1.261877   -0.080602
      6          6           0       -0.806373    1.122151    0.032282
      7          1           0       -2.595560   -0.227589   -0.109035
      8          1           0       -1.575097    2.102759    0.053198
      9          1           0        1.202824    2.191441    0.252573
     10          1           0        2.625114    0.131829   -0.243546
     11          1           0        1.466238   -1.998804   -0.087123
     12          1           0       -1.082395   -2.310364   -0.126602
 ---------------------------------------------------------------------

 SCF Done:  E(RB3LYP) =  -232.195676311     A.U. after   13 cycles

 Excitation energies and oscillator strengths:

 Excited State   1:      Singlet-A      5.1748 eV  239.59 nm  f=0.0020  <S**2>=0.000
      20 -> 22         0.50835
      21 -> 22        -0.15471
      21 -> 23         0.45681
 This state for optimization and/or second-order correction.
 Total Energy, E(TD-HF/TD-DFT) =  -232.005507631
 Copying the excited state density for this state as the 1-particle RhoCI density.

 The electronic state is 1-A.
 Alpha  occ. eigenvalues --  -10.21368 -10.20813 -10.20711 -10.20667 -10.20257
 Alpha  occ. eigenvalues --  -10.19318  -0.84256  -0.73652  -0.73208  -0.59517
 Alpha  occ. eigenvalues --   -0.58125  -0.49943  -0.45042  -0.44011  -0.40646
 Alpha  occ. eigenvalues --   -0.39167  -0.36370  -0.34876  -0.30647  -0.25224
 Alpha  occ. eigenvalues --   -0.24247
 Alpha virt. eigenvalues --   -0.01934  -0.00236   0.05996   0.11147   0.11586
 Alpha virt. eigenvalues --    0.13759   0.14856   0.16334   0.17750   0.27319
 Alpha virt. eigenvalues --    0.27751   0.29287   0.33553   0.46694   0.49221

 Mulliken charges:
               1
     1  C   -0.080488
     2  C   -0.088429
     3  C   -0.071707
     4  C   -0.102917
     5  C   -0.094315
     6  C   -0.087946
     7  H    0.105647
     8  H    0.070465
     9  H    0.089855
    10  H    0.100187
    11  H    0.082998
    12  H    0.076649
 Sum of Mulliken charges =  -0.00000

 Dipole moment (field-independent basis, Debye):
    X=             -0.0271    Y=             -0.2035    Z=             -0.1520  Tot=              0.2554
 Quadrupole moment (field-independent basis, Debye-Ang):
   XX=            -30.3727   YY=            -33.7855   ZZ=            -39.0836
   XY=              0.0869   XZ=             -0.0604   YZ=              0.9236

 Normal termination of Gaussian 16 at Fri Nov 10 21:31:37 2023.
