 Gaussian 16, Revision B.01,
 Gaussian 16:  EM64L-G16RevB.01 20-Dec-2017

 ---------------------------------
 # TD=(NStates=1) B3LYP/6-31G(d,p)
 ---------------------------------

 -------
 EMISPCT
 -------
 Symbolic Z-matrix:
 Charge =  0 Multiplicity = 1

                         Standard orientation:
 ---------------------------------------------------------------------
 Center     Atomic      Atomic             Coordinates (Angstroms)
 Number     Number       Type             X           Y           Z
 ---------------------------------------------------------------------
      1          6           0        1.310396   -0.658030   -0.028895
      2          6           0        1.218941    0.762097   -0.007096
      3          6           0       -0.076795    1.409692    0.026887
      4          6           0       -1.275701    0.695803   -0.048697
      5          6           0       -1.209099   -0.806918    0.020595
      6          6           0        0.053489   -1.402685   -0.006361
      7          1           0        2.268890   -1.169765   -0.051719
      8          1           0        0.061017   -2.401375    0.034053
      9          1           0       -2.114096   -1.336305    0.106001
     10          1           0       -2.220011    1.020018    0.046177
     11          1           0       -0.191263    2.491159   -0.110496
     12          1           0        2.068070    1.396511    0.237385
 ---------------------------------------------------------------------

 SCF Done:  E(RB3LYP) =  -232.222428238     A.U. after   13 cycles

 Excitation energies and oscillator strengths:

 Excited State   1:      Singlet-A      5.1318 eV  241.60 nm  f=0.0009  <S**2>=0.000
      20 -> 22         0.51982
      21 -> 23        -0.46937
 This state for optimization and/or second-order correction.
 Total Energy, E(TD-HF/TD-DFT) =  -232.033837300
 Copying the excited state density for this state as the 1-particle RhoCI density.

 The electronic state is 1-A.
 Alpha  occ. eigenvalues --  -10.20127 -10.19844 -10.19514 -10.19187 -10.18814
 Alpha  occ. eigenvalues --  -10.18595  -0.82832  -0.73627  -0.73204  -0.60257
 Alpha  occ. eigenvalues --   -0.59564  -0.51391  -0.47844  -0.43103  -0.41506
 Alpha  occ. eigenvalues --   -0.41367  -0.35641  -0.34511  -0.32371  -0.24425
 Alpha  occ. eigenvalues --   -0.23899
 Alpha virt. eigenvalues --   -0.01359  -0.00127   0.10179   0.13495   0.15182
 Alpha virt. eigenvalues --    0.15534   0.17042   0.17803   0.20105   0.26497
 Alpha virt. eigenvalues --    0.28260   0.29515   0.31797   0.47451   0.48165

 Mulliken charges:
               1
     1  C   -0.089974
     2  C   -0.096973
     3  C   -0.095163
     4  C   -0.074383
     5  C   -0.095855
     6  C   -0.072678
     7  H    0.095053
     8  H    0.076781
     9  H    0.088440
    10  H    0.084176
    11  H    0.087528
    12  H    0.093050
 Sum of Mulliken charges =  -0.00000

 Dipole moment (field-independent basis, Debye):
    X=             -0.1063    Y=             -0.1243    Z=              0.1692  Tot=              0.2353
 Quadrupole moment (field-independent basis, Debye-Ang):
   XX=            -30.7434   YY=            -31.7285   ZZ=            -38.7275
   XY=             -0.0046   XZ=              0.0536   YZ=             -0.0511

 Normal termination of Gaussian 16 at Fri Nov 10 20:45:08 2023.
