 Gaussian 16, Revision B.01,
 Gaussian 16:  EM64L-G16RevB.01 20-Dec-2017

 ---------------------------------
 # TD=(NStates=1) B3LYP/6-31G(d,p)
 ---------------------------------

 -------
 EMISPCT
 -------
 Symbolic Z-matrix:
 Charge =  0 Multiplicity = 1

                         Standard orientation:
 ---------------------------------------------------------------------
 Center     Atomic      Atomic             Coordinates (Angstroms)
 Number     Number       Type             X           Y           Z
 ---------------------------------------------------------------------
      1          6           0       -1.392095    0.243680   -0.005845
      2          6           0       -0.920791   -1.045590   -0.054574
      3          6           0        0.551487   -1.330693   -0.064656
      4          6           0        1.370067   -0.256036    0.061927
      5          6           0        0.938301    1.091645    0.000533
      6          6           0       -0.550025    1.314199    0.024578
      7          1           0       -2.571319    0.154552    0.114446
      8          1           0       -0.985463    2.233229   -0.086248
      9          1           0        1.812424    1.793081   -0.168250
     10          1           0        2.587834   -0.290493    0.123610
     11          1           0        0.868767   -2.226881    0.016168
     12          1           0       -1.693904   -1.766718    0.228493
 ---------------------------------------------------------------------

 SCF Done:  E(RB3LYP) =  -232.181008009     A.U. after   13 cycles

 Excitation energies and oscillator strengths:

 Excited State   1:      Singlet-A      5.2379 eV  236.70 nm  f=0.0065  <S**2>=0.000
      20 -> 22         0.50740
      21 -> 22         0.19084
      21 -> 23         0.44900
 This state for optimization and/or second-order correction.
 Total Energy, E(TD-HF/TD-DFT) =  -231.988517507
 Copying the excited state density for this state as the 1-particle RhoCI density.

 The electronic state is 1-A.
 Alpha  occ. eigenvalues --  -10.20765 -10.19990 -10.19614 -10.19398 -10.19267
 Alpha  occ. eigenvalues --  -10.18583  -0.84102  -0.75227  -0.72706  -0.62526
 Alpha  occ. eigenvalues --   -0.56730  -0.51548  -0.46896  -0.43958  -0.41405
 Alpha  occ. eigenvalues --   -0.39756  -0.35769  -0.34898  -0.31838  -0.25942
 Alpha  occ. eigenvalues --   -0.23189
 Alpha virt. eigenvalues --   -0.02557   0.01263   0.07006   0.10741   0.14137
 Alpha virt. eigenvalues --    0.15210   0.16663   0.18540   0.19610   0.26533
 Alpha virt. eigenvalues --    0.28247   0.30833   0.32544   0.46581   0.50568

 Mulliken charges:
               1
     1  C   -0.061108
     2  C   -0.103850
     3  C   -0.060109
     4  C   -0.075469
     5  C   -0.096071
     6  C   -0.106125
     7  H    0.082498
     8  H    0.088213
     9  H    0.099908
    10  H    0.068083
    11  H    0.075984
    12  H    0.088045
 Sum of Mulliken charges =  -0.00000

 Dipole moment (field-independent basis, Debye):
    X=             -0.0121    Y=             -0.0759    Z=              0.1080  Tot=              0.1326
 Quadrupole moment (field-independent basis, Debye-Ang):
   XX=            -31.1275   YY=            -32.4192   ZZ=            -38.7108
   XY=              0.5888   XZ=             -0.5489   YZ=             -0.8352

 Normal termination of Gaussian 16 at Fri Nov 10 21:51:13 2023.
