 Gaussian 16, Revision B.01,
 Gaussian 16:  EM64L-G16RevB.01 20-Dec-2017

 ---------------------------------
 # TD=(NStates=1) B3LYP/6-31G(d,p)
 ---------------------------------

 -------
 EMISPCT
 -------
 Symbolic Z-matrix:
 Charge =  0 Multiplicity = 1

                         Standard orientation:
 ---------------------------------------------------------------------
 Center     Atomic      Atomic             Coordinates (Angstroms)
 Number     Number       Type             X           Y           Z
 ---------------------------------------------------------------------
      1          6           0       -1.393127   -0.538794    0.006776
      2          6           0       -1.099551    0.878563    0.035199
      3          6           0        0.214637    1.385727   -0.057487
      4          6           0        1.369467    0.502709   -0.036270
      5          6           0        1.116912   -0.878681    0.047509
      6          6           0       -0.217492   -1.366310   -0.022370
      7          1           0       -2.381379   -0.937549   -0.103894
      8          1           0       -0.288207   -2.462915    0.107436
      9          1           0        1.983204   -1.589640   -0.091432
     10          1           0        2.372419    0.998986    0.068256
     11          1           0        0.243647    2.357450    0.213742
     12          1           0       -1.874766    1.734381   -0.034252
 ---------------------------------------------------------------------

 SCF Done:  E(RB3LYP) =  -232.223835861     A.U. after   13 cycles

 Excitation energies and oscillator strengths:

 Excited State   1:      Singlet-A      5.1345 eV  241.47 nm  f=0.0012  <S**2>=0.000
      20 -> 22         0.46004
      20 -> 23         0.20365
      21 -> 22        -0.25381
      21 -> 23         0.42679
 This state for optimization and/or second-order correction.
 Total Energy, E(TD-HF/TD-DFT) =  -232.035146473
 Copying the excited state density for this state as the 1-particle RhoCI density.

 The electronic state is 1-A.
 Alpha  occ. eigenvalues --  -10.20304 -10.20211 -10.20180 -10.20049 -10.19900
 Alpha  occ. eigenvalues --  -10.18440  -0.83366  -0.73560  -0.73295  -0.60417
 Alpha  occ. eigenvalues --   -0.58364  -0.50993  -0.46200  -0.43069  -0.41880
 Alpha  occ. eigenvalues --   -0.40429  -0.35782  -0.34127  -0.32552  -0.24666
 Alpha  occ. eigenvalues --   -0.24211
 Alpha virt. eigenvalues --   -0.01496  -0.00480   0.08809   0.12539   0.13990
 Alpha virt. eigenvalues --    0.14734   0.16355   0.17162   0.19597   0.27173
 Alpha virt. eigenvalues --    0.28522   0.30045   0.30382   0.47253   0.48254

 Mulliken charges:
               1
     1  C   -0.083060
     2  C   -0.101514
     3  C   -0.075655
     4  C   -0.094338
     5  C   -0.085328
     6  C   -0.097503
     7  H    0.098991
     8  H    0.086916
     9  H    0.089762
    10  H    0.092424
    11  H    0.087975
    12  H    0.081329
 Sum of Mulliken charges =  -0.00000

 Dipole moment (field-independent basis, Debye):
    X=             -0.0080    Y=              0.0022    Z=              0.0988  Tot=              0.0992
 Quadrupole moment (field-independent basis, Debye-Ang):
   XX=            -31.5501   YY=            -31.6532   ZZ=            -38.9007
   XY=              0.0994   XZ=              0.2690   YZ=              0.4599

 Normal termination of Gaussian 16 at Fri Nov 10 20:06:22 2023.
