 Gaussian 16, Revision B.01,
 Gaussian 16:  EM64L-G16RevB.01 20-Dec-2017

 ---------------------------------
 # TD=(NStates=1) B3LYP/6-31G(d,p)
 ---------------------------------

 -------
 EMISPCT
 -------
 Symbolic Z-matrix:
 Charge =  0 Multiplicity = 1

                         Standard orientation:
 ---------------------------------------------------------------------
 Center     Atomic      Atomic             Coordinates (Angstroms)
 Number     Number       Type             X           Y           Z
 ---------------------------------------------------------------------
      1          6           0       -1.435771    0.304895    0.023197
      2          6           0       -0.436084    1.249026   -0.069838
      3          6           0        1.009032    1.051530   -0.037118
      4          6           0        1.403304   -0.346843    0.051486
      5          6           0        0.377462   -1.318834   -0.007752
      6          6           0       -0.985030   -0.992118   -0.009341
      7          1           0       -2.474703    0.838223    0.378263
      8          1           0       -1.652352   -1.809052   -0.173259
      9          1           0        0.753458   -2.316159    0.043452
     10          1           0        2.612275   -0.651930   -0.042973
     11          1           0        1.929912    1.989438    0.211235
     12          1           0       -0.766073    2.263548   -0.120517
 ---------------------------------------------------------------------

 SCF Done:  E(RB3LYP) =  -232.174934796     A.U. after   13 cycles

 Excitation energies and oscillator strengths:

 Excited State   1:      Singlet-A      5.1713 eV  239.75 nm  f=0.0031  <S**2>=0.000
      20 -> 22         0.41163
      20 -> 23        -0.24971
      21 -> 22        -0.33368
      21 -> 23        -0.39505
 This state for optimization and/or second-order correction.
 Total Energy, E(TD-HF/TD-DFT) =  -231.984891339
 Copying the excited state density for this state as the 1-particle RhoCI density.

 The electronic state is 1-A.
 Alpha  occ. eigenvalues --  -10.22283 -10.21232 -10.20322 -10.19302 -10.19255
 Alpha  occ. eigenvalues --  -10.19166  -0.84510  -0.74140  -0.72973  -0.59778
 Alpha  occ. eigenvalues --   -0.58242  -0.50317  -0.44190  -0.44106  -0.40859
 Alpha  occ. eigenvalues --   -0.39741  -0.35726  -0.33471  -0.32776  -0.24884
 Alpha  occ. eigenvalues --   -0.24102
 Alpha virt. eigenvalues --   -0.01403  -0.00274   0.04568   0.09419   0.10848
 Alpha virt. eigenvalues --    0.15001   0.15613   0.17870   0.18336   0.27176
 Alpha virt. eigenvalues --    0.28513   0.30769   0.32586   0.46387   0.48429

 Mulliken charges:
               1
     1  C   -0.071999
     2  C   -0.092738
     3  C   -0.083768
     4  C   -0.095645
     5  C   -0.070596
     6  C   -0.103087
     7  H    0.100400
     8  H    0.088800
     9  H    0.090112
    10  H    0.079377
    11  H    0.078106
    12  H    0.081037
 Sum of Mulliken charges =  -0.00000

 Dipole moment (field-independent basis, Debye):
    X=             -0.0951    Y=             -0.0241    Z=              0.1852  Tot=              0.2096
 Quadrupole moment (field-independent basis, Debye-Ang):
   XX=            -31.6734   YY=            -32.1499   ZZ=            -38.9736
   XY=             -0.5234   XZ=             -0.2066   YZ=              0.6319

 Normal termination of Gaussian 16 at Fri Nov 10 20:15:28 2023.
