 Gaussian 16, Revision B.01,
 Gaussian 16:  EM64L-G16RevB.01 20-Dec-2017

 ---------------------------------
 # TD=(NStates=1) B3LYP/6-31G(d,p)
 ---------------------------------

 -------
 EMISPCT
 -------
 Symbolic Z-matrix:
 Charge =  0 Multiplicity = 1

                         Standard orientation:
 ---------------------------------------------------------------------
 Center     Atomic      Atomic             Coordinates (Angstroms)
 Number     Number       Type             X           Y           Z
 ---------------------------------------------------------------------
      1          6           0       -1.337950    0.498513    0.074242
      2          6           0       -0.248954    1.423363    0.054297
      3          6           0        1.127701    0.866484   -0.079724
      4          6           0        1.336244   -0.521075    0.012774
      5          6           0        0.217896   -1.355934    0.004589
      6          6           0       -1.124589   -0.862826   -0.123763
      7          1           0       -2.323035    0.926650    0.174929
      8          1           0       -2.005856   -1.688945   -0.196433
      9          1           0        0.392363   -2.461347    0.428849
     10          1           0        2.298785   -1.132845    0.032748
     11          1           0        2.093322    1.626850    0.006561
     12          1           0       -0.277660    2.438485   -0.101139
 ---------------------------------------------------------------------

 SCF Done:  E(RB3LYP) =  -232.198810100     A.U. after   12 cycles

 Excitation energies and oscillator strengths:

 Excited State   1:      Singlet-A      5.0712 eV  244.49 nm  f=0.0010  <S**2>=0.000
      20 -> 22        -0.48295
      21 -> 22         0.13195
      21 -> 23         0.49566
 This state for optimization and/or second-order correction.
 Total Energy, E(TD-HF/TD-DFT) =  -232.012445781
 Copying the excited state density for this state as the 1-particle RhoCI density.

 The electronic state is 1-A.
 Alpha  occ. eigenvalues --  -10.21315 -10.20850 -10.20241 -10.20002 -10.19839
 Alpha  occ. eigenvalues --  -10.19763  -0.83748  -0.74188  -0.72437  -0.59278
 Alpha  occ. eigenvalues --   -0.58906  -0.50211  -0.45437  -0.43150  -0.41670
 Alpha  occ. eigenvalues --   -0.39630  -0.35663  -0.34010  -0.32572  -0.25198
 Alpha  occ. eigenvalues --   -0.23383
 Alpha virt. eigenvalues --   -0.01932  -0.00114   0.06356   0.11246   0.12837
 Alpha virt. eigenvalues --    0.13483   0.16045   0.16815   0.17738   0.26252
 Alpha virt. eigenvalues --    0.28502   0.30830   0.31965   0.46363   0.48431

 Mulliken charges:
               1
     1  C   -0.085202
     2  C   -0.089906
     3  C   -0.110356
     4  C   -0.065110
     5  C   -0.096498
     6  C   -0.083442
     7  H    0.093112
     8  H    0.085435
     9  H    0.083613
    10  H    0.093609
    11  H    0.075812
    12  H    0.098931
 Sum of Mulliken charges =  -0.00000

 Dipole moment (field-independent basis, Debye):
    X=             -0.1156    Y=              0.0093    Z=              0.1883  Tot=              0.2212
 Quadrupole moment (field-independent basis, Debye-Ang):
   XX=            -32.0934   YY=            -31.6625   ZZ=            -38.9951
   XY=             -0.3009   XZ=              0.1760   YZ=             -0.6479

 Normal termination of Gaussian 16 at Fri Nov 10 19:57:02 2023.
