 Gaussian 16, Revision B.01,
 Gaussian 16:  EM64L-G16RevB.01 20-Dec-2017

 ---------------------------------
 # TD=(NStates=1) B3LYP/6-31G(d,p)
 ---------------------------------

 -------
 EMISPCT
 -------
 Symbolic Z-matrix:
 Charge =  0 Multiplicity = 1

                         Standard orientation:
 ---------------------------------------------------------------------
 Center     Atomic      Atomic             Coordinates (Angstroms)
 Number     Number       Type             X           Y           Z
 ---------------------------------------------------------------------
      1          6           0        0.582015    1.307516    0.006235
      2          6           0       -0.892577    1.096292   -0.039391
      3          6           0       -1.381830   -0.139989    0.005512
      4          6           0       -0.539922   -1.268880    0.021034
      5          6           0        0.826318   -1.186966   -0.036051
      6          6           0        1.386827    0.187733   -0.033864
      7          1           0        1.062452    2.332465    0.257588
      8          1           0        2.594757    0.321405    0.181765
      9          1           0        1.500728   -2.094448   -0.101251
     10          1           0       -1.063147   -2.173230    0.151737
     11          1           0       -2.479559   -0.344163    0.139317
     12          1           0       -1.500218    1.983733   -0.170000
 ---------------------------------------------------------------------

 SCF Done:  E(RB3LYP) =  -232.220838110     A.U. after   13 cycles

 Excitation energies and oscillator strengths:

 Excited State   1:      Singlet-A      5.4099 eV  229.18 nm  f=0.0017  <S**2>=0.000
      20 -> 22         0.50635
      20 -> 23         0.12806
      21 -> 22        -0.18382
      21 -> 23         0.43931
 This state for optimization and/or second-order correction.
 Total Energy, E(TD-HF/TD-DFT) =  -232.022026918
 Copying the excited state density for this state as the 1-particle RhoCI density.

 The electronic state is 1-A.
 Alpha  occ. eigenvalues --  -10.20786 -10.20253 -10.20237 -10.19293 -10.18758
 Alpha  occ. eigenvalues --  -10.18497  -0.84328  -0.73737  -0.73660  -0.60155
 Alpha  occ. eigenvalues --   -0.58012  -0.50866  -0.45263  -0.43605  -0.41614
 Alpha  occ. eigenvalues --   -0.40537  -0.36433  -0.33570  -0.32457  -0.24987
 Alpha  occ. eigenvalues --   -0.24493
 Alpha virt. eigenvalues --   -0.00889   0.00421   0.07517   0.11906   0.13052
 Alpha virt. eigenvalues --    0.15070   0.16349   0.16808   0.19182   0.26954
 Alpha virt. eigenvalues --    0.28296   0.31893   0.33315   0.46295   0.49841

 Mulliken charges:
               1
     1  C   -0.093164
     2  C   -0.097381
     3  C   -0.068089
     4  C   -0.074672
     5  C   -0.090928
     6  C   -0.094852
     7  H    0.093823
     8  H    0.071740
     9  H    0.095398
    10  H    0.082950
    11  H    0.085668
    12  H    0.089508
 Sum of Mulliken charges =  -0.00000

 Dipole moment (field-independent basis, Debye):
    X=             -0.1725    Y=             -0.0760    Z=              0.2620  Tot=              0.3227
 Quadrupole moment (field-independent basis, Debye-Ang):
   XX=            -31.9271   YY=            -31.5370   ZZ=            -38.7539
   XY=              0.0246   XZ=              0.2494   YZ=              0.1436

 Normal termination of Gaussian 16 at Fri Nov 10 21:44:07 2023.
