 Gaussian 16, Revision B.01,
 Gaussian 16:  EM64L-G16RevB.01 20-Dec-2017

 ---------------------------------
 # TD=(NStates=1) B3LYP/6-31G(d,p)
 ---------------------------------

 -------
 EMISPCT
 -------
 Symbolic Z-matrix:
 Charge =  0 Multiplicity = 1

                         Standard orientation:
 ---------------------------------------------------------------------
 Center     Atomic      Atomic             Coordinates (Angstroms)
 Number     Number       Type             X           Y           Z
 ---------------------------------------------------------------------
      1          6           0       -0.480941    1.255103   -0.065384
      2          6           0        0.899280    1.085552   -0.022664
      3          6           0        1.498830   -0.247535    0.007837
      4          6           0        0.467396   -1.299755    0.012120
      5          6           0       -0.987353   -1.040225   -0.109628
      6          6           0       -1.432062    0.262617    0.089091
      7          1           0       -0.893154    2.293279   -0.037866
      8          1           0       -2.471249    0.333196    0.261141
      9          1           0       -1.707970   -1.820941   -0.025420
     10          1           0        1.006046   -2.271962    0.149079
     11          1           0        2.597249   -0.571628    0.057826
     12          1           0        1.678184    1.943506    0.127008
 ---------------------------------------------------------------------

 SCF Done:  E(RB3LYP) =  -232.208275526     A.U. after   14 cycles

 Excitation energies and oscillator strengths:

 Excited State   1:      Singlet-A      5.0537 eV  245.33 nm  f=0.0039  <S**2>=0.000
      20 -> 22         0.11043
      20 -> 23        -0.42423
      21 -> 22         0.53996
      21 -> 23         0.12493
 This state for optimization and/or second-order correction.
 Total Energy, E(TD-HF/TD-DFT) =  -232.022554915
 Copying the excited state density for this state as the 1-particle RhoCI density.

 The electronic state is 1-A.
 Alpha  occ. eigenvalues --  -10.20791 -10.20627 -10.20540 -10.19625 -10.19292
 Alpha  occ. eigenvalues --  -10.18980  -0.83665  -0.74032  -0.72363  -0.59506
 Alpha  occ. eigenvalues --   -0.58891  -0.50834  -0.46280  -0.43768  -0.41821
 Alpha  occ. eigenvalues --   -0.39175  -0.35730  -0.35018  -0.31594  -0.24581
 Alpha  occ. eigenvalues --   -0.23589
 Alpha virt. eigenvalues --   -0.01047  -0.00624   0.07761   0.12590   0.13453
 Alpha virt. eigenvalues --    0.13821   0.16046   0.17183   0.19175   0.26539
 Alpha virt. eigenvalues --    0.28187   0.29816   0.31653   0.47220   0.48132

 Mulliken charges:
               1
     1  C   -0.088514
     2  C   -0.089292
     3  C   -0.101251
     4  C   -0.096925
     5  C   -0.095137
     6  C   -0.065757
     7  H    0.080479
     8  H    0.096809
     9  H    0.087557
    10  H    0.082897
    11  H    0.103250
    12  H    0.085883
 Sum of Mulliken charges =  -0.00000

 Dipole moment (field-independent basis, Debye):
    X=             -0.0708    Y=             -0.0922    Z=              0.3441  Tot=              0.3632
 Quadrupole moment (field-independent basis, Debye-Ang):
   XX=            -30.0547   YY=            -33.0400   ZZ=            -38.9798
   XY=             -0.2472   XZ=             -0.0728   YZ=             -0.0598

 Normal termination of Gaussian 16 at Fri Nov 10 22:40:31 2023.
