 Gaussian 16, Revision B.01,
 Gaussian 16:  EM64L-G16RevB.01 20-Dec-2017

 ---------------------------------
 # TD=(NStates=1) B3LYP/6-31G(d,p)
 ---------------------------------

 -------
 EMISPCT
 -------
 Symbolic Z-matrix:
 Charge =  0 Multiplicity = 1

                         Standard orientation:
 ---------------------------------------------------------------------
 Center     Atomic      Atomic             Coordinates (Angstroms)
 Number     Number       Type             X           Y           Z
 ---------------------------------------------------------------------
      1          6           0       -0.823296    1.100575    0.015670
      2          6           0        0.553186    1.275361    0.029770
      3          6           0        1.469516    0.175979   -0.086266
      4          6           0        0.882989   -1.123735    0.019415
      5          6           0       -0.634453   -1.247244   -0.009229
      6          6           0       -1.422307   -0.160506   -0.043292
      7          1           0       -1.537211    2.131419    0.057290
      8          1           0       -2.442443   -0.388889   -0.203204
      9          1           0       -1.036776   -2.269592    0.353846
     10          1           0        1.476451   -2.053137    0.040558
     11          1           0        2.553009    0.258769   -0.018637
     12          1           0        0.833164    2.198852    0.213745
 ---------------------------------------------------------------------

 SCF Done:  E(RB3LYP) =  -232.204195317     A.U. after   13 cycles

 Excitation energies and oscillator strengths:

 Excited State   1:      Singlet-A      5.2106 eV  237.94 nm  f=0.0027  <S**2>=0.000
      20 -> 22         0.45064
      21 -> 23         0.54452
 This state for optimization and/or second-order correction.
 Total Energy, E(TD-HF/TD-DFT) =  -232.012707526
 Copying the excited state density for this state as the 1-particle RhoCI density.

 The electronic state is 1-A.
 Alpha  occ. eigenvalues --  -10.20385 -10.20383 -10.20108 -10.19837 -10.18493
 Alpha  occ. eigenvalues --  -10.18408  -0.84072  -0.74869  -0.72561  -0.59566
 Alpha  occ. eigenvalues --   -0.59348  -0.51410  -0.45787  -0.43456  -0.42574
 Alpha  occ. eigenvalues --   -0.39870  -0.36326  -0.33564  -0.32664  -0.25264
 Alpha  occ. eigenvalues --   -0.23671
 Alpha virt. eigenvalues --   -0.00917  -0.00459   0.07776   0.12330   0.13619
 Alpha virt. eigenvalues --    0.15166   0.16821   0.17600   0.18891   0.26367
 Alpha virt. eigenvalues --    0.29142   0.31105   0.31711   0.46810   0.49046

 Mulliken charges:
               1
     1  C   -0.088438
     2  C   -0.065498
     3  C   -0.086897
     4  C   -0.106037
     5  C   -0.101948
     6  C   -0.065127
     7  H    0.068416
     8  H    0.093742
     9  H    0.085545
    10  H    0.090825
    11  H    0.094792
    12  H    0.080625
 Sum of Mulliken charges =  -0.00000

 Dipole moment (field-independent basis, Debye):
    X=              0.0948    Y=             -0.0384    Z=              0.2576  Tot=              0.2771
 Quadrupole moment (field-independent basis, Debye-Ang):
   XX=            -31.4284   YY=            -31.9508   ZZ=            -38.6833
   XY=              0.1202   XZ=              0.2558   YZ=             -0.1702

 Normal termination of Gaussian 16 at Fri Nov 10 22:17:19 2023.
