 Gaussian 16, Revision B.01,
 Gaussian 16:  EM64L-G16RevB.01 20-Dec-2017

 ---------------------------------
 # TD=(NStates=1) B3LYP/6-31G(d,p)
 ---------------------------------

 -------
 EMISPCT
 -------
 Symbolic Z-matrix:
 Charge =  0 Multiplicity = 1

                         Standard orientation:
 ---------------------------------------------------------------------
 Center     Atomic      Atomic             Coordinates (Angstroms)
 Number     Number       Type             X           Y           Z
 ---------------------------------------------------------------------
      1          6           0        0.713687    1.278498   -0.055085
      2          6           0       -0.796270    1.148763   -0.000752
      3          6           0       -1.458562   -0.118319    0.052791
      4          6           0       -0.601001   -1.246983    0.021203
      5          6           0        0.785503   -1.134981    0.007200
      6          6           0        1.386807    0.013341   -0.033242
      7          1           0        1.178538    2.213865    0.371520
      8          1           0        2.455780    0.282342   -0.189928
      9          1           0        1.458117   -1.942657    0.257448
     10          1           0       -1.126686   -2.114964   -0.204782
     11          1           0       -2.438630   -0.199419   -0.159527
     12          1           0       -1.708094    2.118920   -0.027421
 ---------------------------------------------------------------------

 SCF Done:  E(RB3LYP) =  -232.166775275     A.U. after   14 cycles

 Excitation energies and oscillator strengths:

 Excited State   1:      Singlet-A      5.0650 eV  244.79 nm  f=0.0054  <S**2>=0.000
      20 -> 22        -0.46442
      21 -> 22        -0.23312
      21 -> 23         0.46916
 This state for optimization and/or second-order correction.
 Total Energy, E(TD-HF/TD-DFT) =  -231.980640297
 Copying the excited state density for this state as the 1-particle RhoCI density.

 The electronic state is 1-A.
 Alpha  occ. eigenvalues --  -10.22220 -10.20708 -10.19074 -10.19069 -10.18726
 Alpha  occ. eigenvalues --  -10.18332  -0.84810  -0.75238  -0.72575  -0.60790
 Alpha  occ. eigenvalues --   -0.58769  -0.51188  -0.46158  -0.44474  -0.42505
 Alpha  occ. eigenvalues --   -0.39367  -0.36059  -0.34378  -0.30993  -0.25713
 Alpha  occ. eigenvalues --   -0.23293
 Alpha virt. eigenvalues --   -0.02545   0.00128   0.06768   0.10217   0.14310
 Alpha virt. eigenvalues --    0.15218   0.15930   0.17300   0.19913   0.26430
 Alpha virt. eigenvalues --    0.28147   0.30938   0.32385   0.45928   0.48644

 Mulliken charges:
               1
     1  C   -0.125408
     2  C   -0.092630
     3  C   -0.060685
     4  C   -0.098657
     5  C   -0.066014
     6  C   -0.078153
     7  H    0.107882
     8  H    0.094201
     9  H    0.090920
    10  H    0.089359
    11  H    0.090989
    12  H    0.048195
 Sum of Mulliken charges =  -0.00000

 Dipole moment (field-independent basis, Debye):
    X=              0.0546    Y=             -0.3063    Z=              0.0619  Tot=              0.3173
 Quadrupole moment (field-independent basis, Debye-Ang):
   XX=            -31.0980   YY=            -33.2062   ZZ=            -38.5011
   XY=              0.8241   XZ=              0.9579   YZ=              0.6738

 Normal termination of Gaussian 16 at Fri Nov 10 22:35:38 2023.
