 Gaussian 16, Revision B.01,
 Gaussian 16:  EM64L-G16RevB.01 20-Dec-2017

 ---------------------------------
 # TD=(NStates=1) B3LYP/6-31G(d,p)
 ---------------------------------

 -------
 EMISPCT
 -------
 Symbolic Z-matrix:
 Charge =  0 Multiplicity = 1

                         Standard orientation:
 ---------------------------------------------------------------------
 Center     Atomic      Atomic             Coordinates (Angstroms)
 Number     Number       Type             X           Y           Z
 ---------------------------------------------------------------------
      1          6           0       -0.899072    1.141255   -0.067580
      2          6           0        0.511349    1.299458   -0.044014
      3          6           0        1.432520    0.221641    0.037928
      4          6           0        0.839470   -1.075209   -0.011789
      5          6           0       -0.490369   -1.329866    0.085856
      6          6           0       -1.468057   -0.243129   -0.019721
      7          1           0       -1.643200    2.110097    0.212613
      8          1           0       -2.435466   -0.545343   -0.109610
      9          1           0       -0.660412   -2.425065    0.039163
     10          1           0        1.629859   -1.948149   -0.188264
     11          1           0        2.583406    0.430803   -0.098840
     12          1           0        0.970763    2.292752    0.260864
 ---------------------------------------------------------------------

 SCF Done:  E(RB3LYP) =  -232.192612721     A.U. after   13 cycles

 Excitation energies and oscillator strengths:

 Excited State   1:      Singlet-A      5.0506 eV  245.48 nm  f=0.0020  <S**2>=0.000
      20 -> 22         0.51385
      21 -> 22         0.12425
      21 -> 23        -0.46451
 This state for optimization and/or second-order correction.
 Total Energy, E(TD-HF/TD-DFT) =  -232.007005846
 Copying the excited state density for this state as the 1-particle RhoCI density.

 The electronic state is 1-A.
 Alpha  occ. eigenvalues --  -10.22140 -10.20795 -10.20413 -10.20065 -10.19874
 Alpha  occ. eigenvalues --  -10.19729  -0.83523  -0.73857  -0.72607  -0.60507
 Alpha  occ. eigenvalues --   -0.57710  -0.50099  -0.45495  -0.42955  -0.41103
 Alpha  occ. eigenvalues --   -0.39896  -0.35911  -0.34258  -0.31787  -0.25092
 Alpha  occ. eigenvalues --   -0.23796
 Alpha virt. eigenvalues --   -0.02278  -0.00302   0.06769   0.10753   0.12221
 Alpha virt. eigenvalues --    0.14158   0.15658   0.17148   0.17320   0.27076
 Alpha virt. eigenvalues --    0.28037   0.28952   0.32148   0.46121   0.48521

 Mulliken charges:
               1
     1  C   -0.096929
     2  C   -0.089752
     3  C   -0.085892
     4  C   -0.079918
     5  C   -0.080104
     6  C   -0.098610
     7  H    0.085632
     8  H    0.098116
     9  H    0.093289
    10  H    0.073782
    11  H    0.093601
    12  H    0.086786
 Sum of Mulliken charges =  -0.00000

 Dipole moment (field-independent basis, Debye):
    X=              0.0222    Y=             -0.1887    Z=              0.0672  Tot=              0.2015
 Quadrupole moment (field-independent basis, Debye-Ang):
   XX=            -31.5229   YY=            -32.1777   ZZ=            -39.1043
   XY=              0.3556   XZ=             -0.3051   YZ=              1.0579

 Normal termination of Gaussian 16 at Fri Nov 10 19:56:15 2023.
