 Gaussian 16, Revision B.01,
 Gaussian 16:  EM64L-G16RevB.01 20-Dec-2017

 ---------------------------------
 # TD=(NStates=1) B3LYP/6-31G(d,p)
 ---------------------------------

 -------
 EMISPCT
 -------
 Symbolic Z-matrix:
 Charge =  0 Multiplicity = 1

                         Standard orientation:
 ---------------------------------------------------------------------
 Center     Atomic      Atomic             Coordinates (Angstroms)
 Number     Number       Type             X           Y           Z
 ---------------------------------------------------------------------
      1          6           0        0.366862    1.376118   -0.077394
      2          6           0        1.408137    0.334656   -0.035807
      3          6           0        1.013558   -0.969795    0.038379
      4          6           0       -0.341772   -1.346591   -0.031602
      5          6           0       -1.415505   -0.415586   -0.010754
      6          6           0       -1.022543    1.023795    0.042485
      7          1           0        0.740361    2.448621    0.155859
      8          1           0       -1.923793    1.673977    0.068691
      9          1           0       -2.497032   -0.567988    0.107780
     10          1           0       -0.610112   -2.477957   -0.170571
     11          1           0        1.791209   -1.801763    0.266867
     12          1           0        2.446945    0.709529    0.019536
 ---------------------------------------------------------------------

 SCF Done:  E(RB3LYP) =  -232.219237912     A.U. after   13 cycles

 Excitation energies and oscillator strengths:

 Excited State   1:      Singlet-A      5.1228 eV  242.03 nm  f=0.0008  <S**2>=0.000
      20 -> 22         0.43667
      20 -> 23        -0.21673
      21 -> 22         0.27420
      21 -> 23         0.43206
 This state for optimization and/or second-order correction.
 Total Energy, E(TD-HF/TD-DFT) =  -232.030979605
 Copying the excited state density for this state as the 1-particle RhoCI density.

 The electronic state is 1-A.
 Alpha  occ. eigenvalues --  -10.20828 -10.20515 -10.20484 -10.20337 -10.19997
 Alpha  occ. eigenvalues --  -10.19908  -0.83293  -0.73524  -0.72514  -0.59347
 Alpha  occ. eigenvalues --   -0.58710  -0.50191  -0.45683  -0.43566  -0.41294
 Alpha  occ. eigenvalues --   -0.39970  -0.35071  -0.34621  -0.32238  -0.24595
 Alpha  occ. eigenvalues --   -0.24028
 Alpha virt. eigenvalues --   -0.01248  -0.00550   0.07227   0.12516   0.12851
 Alpha virt. eigenvalues --    0.13807   0.15738   0.17213   0.17720   0.25842
 Alpha virt. eigenvalues --    0.27726   0.30954   0.31045   0.47243   0.49268

 Mulliken charges:
               1
     1  C   -0.104000
     2  C   -0.087608
     3  C   -0.071433
     4  C   -0.093794
     5  C   -0.090451
     6  C   -0.095808
     7  H    0.086419
     8  H    0.091574
     9  H    0.098932
    10  H    0.082235
    11  H    0.087170
    12  H    0.096762
 Sum of Mulliken charges =  -0.00000

 Dipole moment (field-independent basis, Debye):
    X=             -0.0449    Y=             -0.0112    Z=              0.2813  Tot=              0.2851
 Quadrupole moment (field-independent basis, Debye-Ang):
   XX=            -30.6760   YY=            -32.6042   ZZ=            -39.1296
   XY=              0.0865   XZ=              0.2529   YZ=              0.3441

 Normal termination of Gaussian 16 at Fri Nov 10 19:59:28 2023.
