 Gaussian 16, Revision B.01,
 Gaussian 16:  EM64L-G16RevB.01 20-Dec-2017

 ---------------------------------
 # TD=(NStates=1) B3LYP/6-31G(d,p)
 ---------------------------------

 -------
 EMISPCT
 -------
 Symbolic Z-matrix:
 Charge =  0 Multiplicity = 1

                         Standard orientation:
 ---------------------------------------------------------------------
 Center     Atomic      Atomic             Coordinates (Angstroms)
 Number     Number       Type             X           Y           Z
 ---------------------------------------------------------------------
      1          6           0        1.307245   -0.634617   -0.007285
      2          6           0        0.072378   -1.386521   -0.001744
      3          6           0       -1.167978   -0.834803    0.005048
      4          6           0       -1.320598    0.663735   -0.065542
      5          6           0       -0.057997    1.380668   -0.041529
      6          6           0        1.206140    0.762916    0.052961
      7          1           0        2.327902   -1.009243   -0.173948
      8          1           0        1.935646    1.532541    0.179702
      9          1           0       -0.236004    2.522535    0.063021
     10          1           0       -2.289746    1.131890    0.007067
     11          1           0       -2.077924   -1.340426    0.350112
     12          1           0        0.104982   -2.545569   -0.077400
 ---------------------------------------------------------------------

 SCF Done:  E(RB3LYP) =  -232.216955199     A.U. after   13 cycles

 Excitation energies and oscillator strengths:

 Excited State   1:      Singlet-A      5.1199 eV  242.16 nm  f=0.0029  <S**2>=0.000
      20 -> 22         0.53962
      21 -> 22        -0.11310
      21 -> 23        -0.43512
 This state for optimization and/or second-order correction.
 Total Energy, E(TD-HF/TD-DFT) =  -232.028803866
 Copying the excited state density for this state as the 1-particle RhoCI density.

 The electronic state is 1-A.
 Alpha  occ. eigenvalues --  -10.20288 -10.20253 -10.20096 -10.19998 -10.19616
 Alpha  occ. eigenvalues --  -10.19269  -0.83443  -0.74059  -0.72600  -0.60557
 Alpha  occ. eigenvalues --   -0.58070  -0.50606  -0.46459  -0.43536  -0.41657
 Alpha  occ. eigenvalues --   -0.40036  -0.36178  -0.34140  -0.31619  -0.24771
 Alpha  occ. eigenvalues --   -0.23823
 Alpha virt. eigenvalues --   -0.01927   0.00269   0.08585   0.12735   0.13326
 Alpha virt. eigenvalues --    0.14814   0.15728   0.17118   0.18453   0.26657
 Alpha virt. eigenvalues --    0.28256   0.29674   0.31732   0.46797   0.50566

 Mulliken charges:
               1
     1  C   -0.098976
     2  C   -0.090063
     3  C   -0.090887
     4  C   -0.100003
     5  C   -0.094069
     6  C   -0.071966
     7  H    0.099053
     8  H    0.095327
     9  H    0.077392
    10  H    0.096869
    11  H    0.094548
    12  H    0.082776
 Sum of Mulliken charges =  -0.00000

 Dipole moment (field-independent basis, Debye):
    X=             -0.0530    Y=              0.1654    Z=              0.2216  Tot=              0.2816
 Quadrupole moment (field-independent basis, Debye-Ang):
   XX=            -31.0828   YY=            -32.1843   ZZ=            -38.8774
   XY=             -0.1117   XZ=             -0.7510   YZ=              0.3247

 Normal termination of Gaussian 16 at Fri Nov 10 21:33:04 2023.
