 Gaussian 16, Revision B.01,
 Gaussian 16:  EM64L-G16RevB.01 20-Dec-2017

 ---------------------------------
 # TD=(NStates=1) B3LYP/6-31G(d,p)
 ---------------------------------

 -------
 EMISPCT
 -------
 Symbolic Z-matrix:
 Charge =  0 Multiplicity = 1

                         Standard orientation:
 ---------------------------------------------------------------------
 Center     Atomic      Atomic             Coordinates (Angstroms)
 Number     Number       Type             X           Y           Z
 ---------------------------------------------------------------------
      1          6           0       -1.219581    0.778902   -0.023474
      2          6           0        0.047235    1.373668    0.089650
      3          6           0        1.331055    0.630143    0.017832
      4          6           0        1.202337   -0.757912   -0.089940
      5          6           0       -0.034313   -1.399284    0.085876
      6          6           0       -1.279948   -0.663884   -0.067750
      7          1           0       -2.064453    1.567445   -0.016614
      8          1           0       -2.337228   -1.257046   -0.205465
      9          1           0       -0.377130   -2.388182    0.334804
     10          1           0        2.200365   -1.398907   -0.014558
     11          1           0        2.242613    1.202240   -0.246929
     12          1           0        0.055122    2.504660    0.075597
 ---------------------------------------------------------------------

 SCF Done:  E(RB3LYP) =  -232.201370326     A.U. after   13 cycles

 Excitation energies and oscillator strengths:

 Excited State   1:      Singlet-A      5.0666 eV  244.71 nm  f=0.0029  <S**2>=0.000
      20 -> 22         0.47916
      20 -> 23         0.11599
      21 -> 22        -0.20967
      21 -> 23         0.46087
 This state for optimization and/or second-order correction.
 Total Energy, E(TD-HF/TD-DFT) =  -232.015175209
 Copying the excited state density for this state as the 1-particle RhoCI density.

 The electronic state is 1-A.
 Alpha  occ. eigenvalues --  -10.21475 -10.20757 -10.20388 -10.20384 -10.20085
 Alpha  occ. eigenvalues --  -10.19905  -0.83427  -0.73646  -0.72766  -0.59132
 Alpha  occ. eigenvalues --   -0.58621  -0.50271  -0.45085  -0.43521  -0.41027
 Alpha  occ. eigenvalues --   -0.39962  -0.35861  -0.33592  -0.32154  -0.25106
 Alpha  occ. eigenvalues --   -0.23573
 Alpha virt. eigenvalues --   -0.01960  -0.00222   0.07178   0.11533   0.12024
 Alpha virt. eigenvalues --    0.13655   0.15426   0.16509   0.17637   0.26162
 Alpha virt. eigenvalues --    0.27998   0.29825   0.32067   0.46078   0.47098

 Mulliken charges:
               1
     1  C   -0.068340
     2  C   -0.099020
     3  C   -0.088156
     4  C   -0.098686
     5  C   -0.068840
     6  C   -0.120519
     7  H    0.091706
     8  H    0.087237
     9  H    0.100118
    10  H    0.080778
    11  H    0.102270
    12  H    0.081453
 Sum of Mulliken charges =  -0.00000

 Dipole moment (field-independent basis, Debye):
    X=             -0.1367    Y=              0.0945    Z=             -0.0371  Tot=              0.1703
 Quadrupole moment (field-independent basis, Debye-Ang):
   XX=            -31.8563   YY=            -31.7649   ZZ=            -39.1168
   XY=              0.5710   XZ=             -0.2282   YZ=             -0.6678

 Normal termination of Gaussian 16 at Fri Nov 10 19:49:37 2023.
