 Gaussian 16, Revision B.01,
 Gaussian 16:  EM64L-G16RevB.01 20-Dec-2017

 ---------------------------------
 # TD=(NStates=1) B3LYP/6-31G(d,p)
 ---------------------------------

 -------
 EMISPCT
 -------
 Symbolic Z-matrix:
 Charge =  0 Multiplicity = 1

                         Standard orientation:
 ---------------------------------------------------------------------
 Center     Atomic      Atomic             Coordinates (Angstroms)
 Number     Number       Type             X           Y           Z
 ---------------------------------------------------------------------
      1          6           0        0.714421   -1.186893   -0.002311
      2          6           0        1.446335   -0.024106   -0.005336
      3          6           0        0.706018    1.246089   -0.050049
      4          6           0       -0.721834    1.187635    0.029995
      5          6           0       -1.430040   -0.031338    0.003369
      6          6           0       -0.701053   -1.261359   -0.026515
      7          1           0        1.352504   -2.007549    0.254568
      8          1           0       -1.359453   -1.997847   -0.063077
      9          1           0       -2.503287    0.041559   -0.068109
     10          1           0       -1.293288    2.154090    0.215205
     11          1           0        1.161397    2.310385   -0.056548
     12          1           0        2.559044   -0.080806    0.023039
 ---------------------------------------------------------------------

 SCF Done:  E(RB3LYP) =  -232.221010361     A.U. after   13 cycles

 Excitation energies and oscillator strengths:

 Excited State   1:      Singlet-A      5.2454 eV  236.37 nm  f=0.0010  <S**2>=0.000
      20 -> 22         0.51166
      21 -> 22         0.11180
      21 -> 23         0.46772
 This state for optimization and/or second-order correction.
 Total Energy, E(TD-HF/TD-DFT) =  -232.028245349
 Copying the excited state density for this state as the 1-particle RhoCI density.

 The electronic state is 1-A.
 Alpha  occ. eigenvalues --  -10.20642 -10.19971 -10.19549 -10.19097 -10.19023
 Alpha  occ. eigenvalues --  -10.18812  -0.83702  -0.74195  -0.73104  -0.60629
 Alpha  occ. eigenvalues --   -0.58595  -0.51441  -0.46199  -0.43630  -0.41663
 Alpha  occ. eigenvalues --   -0.40558  -0.35793  -0.34778  -0.32092  -0.24812
 Alpha  occ. eigenvalues --   -0.23989
 Alpha virt. eigenvalues --   -0.01252   0.00209   0.08781   0.13023   0.14240
 Alpha virt. eigenvalues --    0.14662   0.16586   0.18108   0.19312   0.28144
 Alpha virt. eigenvalues --    0.28744   0.29322   0.31831   0.47253   0.49692

 Mulliken charges:
               1
     1  C   -0.087097
     2  C   -0.092617
     3  C   -0.098578
     4  C   -0.083082
     5  C   -0.098325
     6  C   -0.062212
     7  H    0.085459
     8  H    0.081918
     9  H    0.090256
    10  H    0.081880
    11  H    0.087639
    12  H    0.094759
 Sum of Mulliken charges =  -0.00000

 Dipole moment (field-independent basis, Debye):
    X=             -0.0922    Y=              0.0213    Z=              0.1735  Tot=              0.1976
 Quadrupole moment (field-independent basis, Debye-Ang):
   XX=            -30.7851   YY=            -32.2588   ZZ=            -38.7637
   XY=              0.0366   XZ=              0.2985   YZ=             -0.0448

 Normal termination of Gaussian 16 at Fri Nov 10 20:17:02 2023.
