 Gaussian 16, Revision B.01,
 Gaussian 16:  EM64L-G16RevB.01 20-Dec-2017

 ---------------------------------
 # TD=(NStates=1) B3LYP/6-31G(d,p)
 ---------------------------------

 -------
 EMISPCT
 -------
 Symbolic Z-matrix:
 Charge =  0 Multiplicity = 1

                         Standard orientation:
 ---------------------------------------------------------------------
 Center     Atomic      Atomic             Coordinates (Angstroms)
 Number     Number       Type             X           Y           Z
 ---------------------------------------------------------------------
      1          6           0        1.309271   -0.712582    0.054757
      2          6           0        0.060239   -1.339611   -0.047922
      3          6           0       -1.194925   -0.764603   -0.101719
      4          6           0       -1.306251    0.644503    0.050897
      5          6           0       -0.058946    1.384196    0.019653
      6          6           0        1.204189    0.783214   -0.041735
      7          1           0        2.205111   -1.155016   -0.109748
      8          1           0        1.988206    1.502113    0.033270
      9          1           0       -0.035432    2.377884   -0.007234
     10          1           0       -2.305003    1.125540    0.033165
     11          1           0       -1.955534   -1.417568    0.097199
     12          1           0        0.021188   -2.403653    0.349764
 ---------------------------------------------------------------------

 SCF Done:  E(RB3LYP) =  -232.205770122     A.U. after   13 cycles

 Excitation energies and oscillator strengths:

 Excited State   1:      Singlet-A      5.0466 eV  245.68 nm  f=0.0060  <S**2>=0.000
      20 -> 22         0.50608
      20 -> 23        -0.15661
      21 -> 22        -0.25868
      21 -> 23        -0.38933
 This state for optimization and/or second-order correction.
 Total Energy, E(TD-HF/TD-DFT) =  -232.020312375
 Copying the excited state density for this state as the 1-particle RhoCI density.

 The electronic state is 1-A.
 Alpha  occ. eigenvalues --  -10.20262 -10.19606 -10.19466 -10.18999 -10.18376
 Alpha  occ. eigenvalues --  -10.18336  -0.83720  -0.74462  -0.73298  -0.61434
 Alpha  occ. eigenvalues --   -0.58529  -0.52083  -0.47162  -0.43117  -0.42230
 Alpha  occ. eigenvalues --   -0.40933  -0.36264  -0.34333  -0.32264  -0.24643
 Alpha  occ. eigenvalues --   -0.23988
 Alpha virt. eigenvalues --   -0.02165   0.00070   0.09846   0.13106   0.14598
 Alpha virt. eigenvalues --    0.15424   0.17230   0.19465   0.20268   0.27099
 Alpha virt. eigenvalues --    0.28619   0.29779   0.31533   0.46721   0.49252

 Mulliken charges:
               1
     1  C   -0.086501
     2  C   -0.096391
     3  C   -0.071796
     4  C   -0.092658
     5  C   -0.070659
     6  C   -0.099567
     7  H    0.097211
     8  H    0.087081
     9  H    0.077304
    10  H    0.091817
    11  H    0.088505
    12  H    0.075657
 Sum of Mulliken charges =  -0.00000

 Dipole moment (field-independent basis, Debye):
    X=             -0.0287    Y=              0.2081    Z=              0.2210  Tot=              0.3050
 Quadrupole moment (field-independent basis, Debye-Ang):
   XX=            -31.3297   YY=            -31.8995   ZZ=            -38.4840
   XY=              0.2690   XZ=             -0.4124   YZ=             -0.5790

 Normal termination of Gaussian 16 at Fri Nov 10 20:10:14 2023.
