 Gaussian 16, Revision B.01,
 Gaussian 16:  EM64L-G16RevB.01 20-Dec-2017

 ---------------------------------
 # TD=(NStates=1) B3LYP/6-31G(d,p)
 ---------------------------------

 -------
 EMISPCT
 -------
 Symbolic Z-matrix:
 Charge =  0 Multiplicity = 1

                         Standard orientation:
 ---------------------------------------------------------------------
 Center     Atomic      Atomic             Coordinates (Angstroms)
 Number     Number       Type             X           Y           Z
 ---------------------------------------------------------------------
      1          6           0       -0.813550    1.195829    0.021627
      2          6           0        0.626499    1.278077    0.003053
      3          6           0        1.485166    0.082372    0.030276
      4          6           0        0.831039   -1.179500   -0.013094
      5          6           0       -0.653121   -1.258157    0.025850
      6          6           0       -1.481334   -0.133900   -0.066513
      7          1           0       -1.227875    2.214302    0.046848
      8          1           0       -2.481221   -0.045402    0.254622
      9          1           0       -1.280125   -2.222795   -0.199429
     10          1           0        1.315936   -2.111665    0.130964
     11          1           0        2.650014    0.136513   -0.053404
     12          1           0        1.055079    2.120713   -0.186795
 ---------------------------------------------------------------------

 SCF Done:  E(RB3LYP) =  -232.193007414     A.U. after   13 cycles

 Excitation energies and oscillator strengths:

 Excited State   1:      Singlet-A      4.9289 eV  251.54 nm  f=0.0020  <S**2>=0.000
      20 -> 22        -0.22362
      20 -> 23        -0.40350
      21 -> 22         0.47312
      21 -> 23        -0.25111
 This state for optimization and/or second-order correction.
 Total Energy, E(TD-HF/TD-DFT) =  -232.011873178
 Copying the excited state density for this state as the 1-particle RhoCI density.

 The electronic state is 1-A.
 Alpha  occ. eigenvalues --  -10.21149 -10.20914 -10.20246 -10.20198 -10.19751
 Alpha  occ. eigenvalues --  -10.18715  -0.82425  -0.73514  -0.72809  -0.59651
 Alpha  occ. eigenvalues --   -0.59359  -0.50933  -0.47161  -0.42086  -0.41571
 Alpha  occ. eigenvalues --   -0.40571  -0.35446  -0.34028  -0.32149  -0.24609
 Alpha  occ. eigenvalues --   -0.23761
 Alpha virt. eigenvalues --   -0.01626  -0.01411   0.08774   0.12169   0.13559
 Alpha virt. eigenvalues --    0.14311   0.16166   0.16778   0.19440   0.26685
 Alpha virt. eigenvalues --    0.27287   0.28939   0.29962   0.43961   0.48083

 Mulliken charges:
               1
     1  C   -0.103624
     2  C   -0.070550
     3  C   -0.094349
     4  C   -0.087736
     5  C   -0.102074
     6  C   -0.093473
     7  H    0.091689
     8  H    0.104203
     9  H    0.088243
    10  H    0.095445
    11  H    0.093726
    12  H    0.078501
 Sum of Mulliken charges =  -0.00000

 Dipole moment (field-independent basis, Debye):
    X=              0.1222    Y=              0.1645    Z=              0.0121  Tot=              0.2053
 Quadrupole moment (field-independent basis, Debye-Ang):
   XX=            -31.4049   YY=            -31.6111   ZZ=            -38.9803
   XY=             -0.0767   XZ=             -0.5512   YZ=             -0.1432

 Normal termination of Gaussian 16 at Fri Nov 10 22:44:05 2023.
