 Gaussian 16, Revision B.01,
 Gaussian 16:  EM64L-G16RevB.01 20-Dec-2017

 ---------------------------------
 # TD=(NStates=1) B3LYP/6-31G(d,p)
 ---------------------------------

 -------
 EMISPCT
 -------
 Symbolic Z-matrix:
 Charge =  0 Multiplicity = 1

                         Standard orientation:
 ---------------------------------------------------------------------
 Center     Atomic      Atomic             Coordinates (Angstroms)
 Number     Number       Type             X           Y           Z
 ---------------------------------------------------------------------
      1          6           0       -1.222052    0.739227    0.005227
      2          6           0       -1.255615   -0.633748   -0.088645
      3          6           0       -0.081886   -1.325968    0.028613
      4          6           0        1.181040   -0.717650    0.015346
      5          6           0        1.271366    0.656909   -0.028014
      6          6           0        0.061598    1.328342    0.008554
      7          1           0       -2.177748    1.308217    0.041881
      8          1           0        0.242600    2.489784    0.204356
      9          1           0        2.340390    1.017337   -0.188565
     10          1           0        1.995119   -1.548972    0.152160
     11          1           0        0.028105   -2.343562   -0.011280
     12          1           0       -2.155173   -1.205477    0.154963
 ---------------------------------------------------------------------

 SCF Done:  E(RB3LYP) =  -232.214557522     A.U. after   13 cycles

 Excitation energies and oscillator strengths:

 Excited State   1:      Singlet-A      5.4752 eV  226.45 nm  f=0.0042  <S**2>=0.000
      20 -> 23        -0.43113
      21 -> 22         0.54198
      21 -> 23        -0.10211
 This state for optimization and/or second-order correction.
 Total Energy, E(TD-HF/TD-DFT) =  -232.013346029
 Copying the excited state density for this state as the 1-particle RhoCI density.

 The electronic state is 1-A.
 Alpha  occ. eigenvalues --  -10.20206 -10.19694 -10.19543 -10.19047 -10.18496
 Alpha  occ. eigenvalues --  -10.17328  -0.85505  -0.75014  -0.73685  -0.59946
 Alpha  occ. eigenvalues --   -0.59401  -0.51602  -0.45193  -0.43969  -0.42179
 Alpha  occ. eigenvalues --   -0.40137  -0.36389  -0.33733  -0.32637  -0.25434
 Alpha  occ. eigenvalues --   -0.24312
 Alpha virt. eigenvalues --   -0.00204   0.00153   0.07237   0.12566   0.13589
 Alpha virt. eigenvalues --    0.15145   0.15899   0.17716   0.20627   0.28855
 Alpha virt. eigenvalues --    0.29883   0.31819   0.33246   0.46075   0.49913

 Mulliken charges:
               1
     1  C   -0.082598
     2  C   -0.091290
     3  C   -0.063739
     4  C   -0.084368
     5  C   -0.082056
     6  C   -0.104847
     7  H    0.096180
     8  H    0.073832
     9  H    0.097849
    10  H    0.078403
    11  H    0.075214
    12  H    0.087420
 Sum of Mulliken charges =  -0.00000

 Dipole moment (field-independent basis, Debye):
    X=              0.0422    Y=             -0.1843    Z=              0.1855  Tot=              0.2648
 Quadrupole moment (field-independent basis, Debye-Ang):
   XX=            -31.4410   YY=            -32.4695   ZZ=            -38.4823
   XY=             -0.2590   XZ=             -0.4838   YZ=             -0.0477

 Normal termination of Gaussian 16 at Fri Nov 10 20:53:26 2023.
