 Gaussian 16, Revision B.01,
 Gaussian 16:  EM64L-G16RevB.01 20-Dec-2017

 ---------------------------------
 # TD=(NStates=1) B3LYP/6-31G(d,p)
 ---------------------------------

 -------
 EMISPCT
 -------
 Symbolic Z-matrix:
 Charge =  0 Multiplicity = 1

                         Standard orientation:
 ---------------------------------------------------------------------
 Center     Atomic      Atomic             Coordinates (Angstroms)
 Number     Number       Type             X           Y           Z
 ---------------------------------------------------------------------
      1          6           0        0.516465   -1.310873   -0.007587
      2          6           0       -0.932540   -1.066478   -0.008935
      3          6           0       -1.455556    0.270734    0.046564
      4          6           0       -0.528025    1.375151    0.015332
      5          6           0        0.961681    1.078603    0.047202
      6          6           0        1.423492   -0.270906   -0.149055
      7          1           0        0.920136   -2.420272    0.283644
      8          1           0        2.372170   -0.570062    0.344642
      9          1           0        1.742478    1.911209   -0.042760
     10          1           0       -0.708160    2.453453   -0.053170
     11          1           0       -2.585330    0.147949   -0.072687
     12          1           0       -1.654393   -1.979659   -0.120801
 ---------------------------------------------------------------------

 SCF Done:  E(RB3LYP) =  -232.185008809     A.U. after   13 cycles

 Excitation energies and oscillator strengths:

 Excited State   1:      Singlet-A      4.8096 eV  257.79 nm  f=0.0057  <S**2>=0.000
      20 -> 22        -0.41804
      20 -> 23        -0.10423
      21 -> 22        -0.17293
      21 -> 23         0.53292
 This state for optimization and/or second-order correction.
 Total Energy, E(TD-HF/TD-DFT) =  -232.008260514
 Copying the excited state density for this state as the 1-particle RhoCI density.

 The electronic state is 1-A.
 Alpha  occ. eigenvalues --  -10.21663 -10.21515 -10.21484 -10.20888 -10.20848
 Alpha  occ. eigenvalues --  -10.19284  -0.82741  -0.73999  -0.71769  -0.59282
 Alpha  occ. eigenvalues --   -0.58426  -0.49818  -0.44826  -0.43351  -0.41022
 Alpha  occ. eigenvalues --   -0.39533  -0.35821  -0.33419  -0.31902  -0.25451
 Alpha  occ. eigenvalues --   -0.23189
 Alpha virt. eigenvalues --   -0.02392  -0.01598   0.07180   0.10916   0.11344
 Alpha virt. eigenvalues --    0.13307   0.14761   0.16728   0.17789   0.24837
 Alpha virt. eigenvalues --    0.28142   0.28919   0.30555   0.44486   0.47676

 Mulliken charges:
               1
     1  C   -0.081079
     2  C   -0.099032
     3  C   -0.074836
     4  C   -0.106614
     5  C   -0.104889
     6  C   -0.095762
     7  H    0.080950
     8  H    0.094601
     9  H    0.095909
    10  H    0.100680
    11  H    0.102043
    12  H    0.088028
 Sum of Mulliken charges =  -0.00000

 Dipole moment (field-independent basis, Debye):
    X=             -0.2115    Y=              0.0062    Z=              0.1955  Tot=              0.2881
 Quadrupole moment (field-independent basis, Debye-Ang):
   XX=            -32.1960   YY=            -31.7827   ZZ=            -39.2193
   XY=              0.7119   XZ=              1.2051   YZ=             -0.7016

 Normal termination of Gaussian 16 at Fri Nov 10 20:11:27 2023.
