 Gaussian 16, Revision B.01,
 Gaussian 16:  EM64L-G16RevB.01 20-Dec-2017

 ---------------------------------
 # TD=(NStates=1) B3LYP/6-31G(d,p)
 ---------------------------------

 -------
 EMISPCT
 -------
 Symbolic Z-matrix:
 Charge =  0 Multiplicity = 1

                         Standard orientation:
 ---------------------------------------------------------------------
 Center     Atomic      Atomic             Coordinates (Angstroms)
 Number     Number       Type             X           Y           Z
 ---------------------------------------------------------------------
      1          6           0        0.316664   -1.344146    0.048185
      2          6           0        1.369641   -0.443579    0.029195
      3          6           0        1.075857    0.972967   -0.015454
      4          6           0       -0.302575    1.367738   -0.033551
      5          6           0       -1.423961    0.399344   -0.094114
      6          6           0       -1.009144   -0.968730    0.054521
      7          1           0        0.341659   -2.253298   -0.133256
      8          1           0       -1.741914   -1.831078   -0.128325
      9          1           0       -2.401227    0.877515    0.114431
     10          1           0       -0.743630    2.370460    0.397527
     11          1           0        1.918671    1.655615   -0.141252
     12          1           0        2.467545   -0.720772   -0.041820
 ---------------------------------------------------------------------

 SCF Done:  E(RB3LYP) =  -232.184714788     A.U. after   13 cycles

 Excitation energies and oscillator strengths:

 Excited State   1:      Singlet-A      4.9398 eV  250.99 nm  f=0.0026  <S**2>=0.000
      20 -> 22         0.29408
      20 -> 23         0.34324
      21 -> 22         0.45473
      21 -> 23        -0.29681
 This state for optimization and/or second-order correction.
 Total Energy, E(TD-HF/TD-DFT) =  -232.003181950
 Copying the excited state density for this state as the 1-particle RhoCI density.

 The electronic state is 1-A.
 Alpha  occ. eigenvalues --  -10.20763 -10.20357 -10.20300 -10.20268 -10.19820
 Alpha  occ. eigenvalues --  -10.17328  -0.83864  -0.74188  -0.73131  -0.60179
 Alpha  occ. eigenvalues --   -0.59041  -0.51773  -0.45528  -0.43215  -0.41624
 Alpha  occ. eigenvalues --   -0.41183  -0.35550  -0.34326  -0.32342  -0.24496
 Alpha  occ. eigenvalues --   -0.23979
 Alpha virt. eigenvalues --   -0.01781  -0.01079   0.08749   0.12172   0.12560
 Alpha virt. eigenvalues --    0.14184   0.16878   0.17989   0.20659   0.26322
 Alpha virt. eigenvalues --    0.28084   0.30930   0.31627   0.46965   0.48977

 Mulliken charges:
               1
     1  C   -0.018430
     2  C   -0.090887
     3  C   -0.090707
     4  C   -0.105713
     5  C   -0.098489
     6  C   -0.109236
     7  H    0.066646
     8  H    0.078041
     9  H    0.097943
    10  H    0.085347
    11  H    0.095472
    12  H    0.090013
 Sum of Mulliken charges =  -0.00000

 Dipole moment (field-independent basis, Debye):
    X=              0.1378    Y=             -0.1350    Z=              0.0406  Tot=              0.1971
 Quadrupole moment (field-independent basis, Debye-Ang):
   XX=            -31.4365   YY=            -32.3115   ZZ=            -38.6725
   XY=             -0.2174   XZ=             -0.7053   YZ=              1.1279

 Normal termination of Gaussian 16 at Fri Nov 10 20:58:24 2023.
