 Gaussian 16, Revision B.01,
 Gaussian 16:  EM64L-G16RevB.01 20-Dec-2017

 ---------------------------------
 # TD=(NStates=1) B3LYP/6-31G(d,p)
 ---------------------------------

 -------
 EMISPCT
 -------
 Symbolic Z-matrix:
 Charge =  0 Multiplicity = 1

                         Standard orientation:
 ---------------------------------------------------------------------
 Center     Atomic      Atomic             Coordinates (Angstroms)
 Number     Number       Type             X           Y           Z
 ---------------------------------------------------------------------
      1          6           0       -0.876885    1.109831   -0.001823
      2          6           0        0.586436    1.340135   -0.042268
      3          6           0        1.486213    0.182020   -0.035732
      4          6           0        0.889710   -1.170950   -0.006202
      5          6           0       -0.558876   -1.289166   -0.104347
      6          6           0       -1.468294   -0.150550    0.090918
      7          1           0       -1.695621    2.010771   -0.048676
      8          1           0       -2.632072   -0.446088    0.320595
      9          1           0       -0.861775   -2.380783   -0.349416
     10          1           0        1.326281   -1.991517    0.417852
     11          1           0        2.615398    0.303330    0.359666
     12          1           0        0.897968    2.376373   -0.103298
 ---------------------------------------------------------------------

 SCF Done:  E(RB3LYP) =  -232.174416282     A.U. after   13 cycles

 Excitation energies and oscillator strengths:

 Excited State   1:      Singlet-A      4.6591 eV  266.11 nm  f=0.0028  <S**2>=0.000
      20 -> 22         0.40530
      20 -> 23        -0.21148
      21 -> 22         0.34305
      21 -> 23         0.41574
 This state for optimization and/or second-order correction.
 Total Energy, E(TD-HF/TD-DFT) =  -232.003196917
 Copying the excited state density for this state as the 1-particle RhoCI density.

 The electronic state is 1-A.
 Alpha  occ. eigenvalues --  -10.21826 -10.21714 -10.21569 -10.21167 -10.21081
 Alpha  occ. eigenvalues --  -10.19688  -0.82224  -0.73003  -0.72151  -0.58877
 Alpha  occ. eigenvalues --   -0.58369  -0.49552  -0.45559  -0.42451  -0.40896
 Alpha  occ. eigenvalues --   -0.40340  -0.35557  -0.33701  -0.31903  -0.24375
 Alpha  occ. eigenvalues --   -0.23111
 Alpha virt. eigenvalues --   -0.02426  -0.01502   0.06747   0.09950   0.12217
 Alpha virt. eigenvalues --    0.13231   0.14190   0.15525   0.18101   0.26095
 Alpha virt. eigenvalues --    0.26514   0.28897   0.30249   0.44556   0.47679

 Mulliken charges:
               1
     1  C   -0.096711
     2  C   -0.089815
     3  C   -0.106499
     4  C   -0.092378
     5  C   -0.105461
     6  C   -0.073529
     7  H    0.082628
     8  H    0.098376
     9  H    0.088690
    10  H    0.105818
    11  H    0.088015
    12  H    0.100866
 Sum of Mulliken charges =  -0.00000

 Dipole moment (field-independent basis, Debye):
    X=             -0.2252    Y=             -0.1104    Z=              0.4031  Tot=              0.4748
 Quadrupole moment (field-independent basis, Debye-Ang):
   XX=            -32.1063   YY=            -31.6708   ZZ=            -39.1436
   XY=              0.1285   XZ=              0.7885   YZ=             -0.4893

 Normal termination of Gaussian 16 at Fri Nov 10 22:33:53 2023.
