 Gaussian 16, Revision B.01,
 Gaussian 16:  EM64L-G16RevB.01 20-Dec-2017

 ---------------------------------
 # TD=(NStates=1) B3LYP/6-31G(d,p)
 ---------------------------------

 -------
 EMISPCT
 -------
 Symbolic Z-matrix:
 Charge =  0 Multiplicity = 1

                         Standard orientation:
 ---------------------------------------------------------------------
 Center     Atomic      Atomic             Coordinates (Angstroms)
 Number     Number       Type             X           Y           Z
 ---------------------------------------------------------------------
      1          6           0       -0.142617    1.357152    0.042021
      2          6           0        1.161621    0.806351   -0.026770
      3          6           0        1.371804   -0.609151   -0.085762
      4          6           0        0.160965   -1.291346    0.029854
      5          6           0       -1.237145   -0.868852   -0.012411
      6          6           0       -1.321742    0.573889   -0.039134
      7          1           0       -0.230813    2.397780    0.305288
      8          1           0       -2.259273    1.110654   -0.318417
      9          1           0       -2.041167   -1.510004    0.171077
     10          1           0        0.362580   -2.457507    0.324516
     11          1           0        2.324613   -1.032925   -0.122794
     12          1           0        1.886754    1.683747    0.193547
 ---------------------------------------------------------------------

 SCF Done:  E(RB3LYP) =  -232.204149052     A.U. after   14 cycles

 Excitation energies and oscillator strengths:

 Excited State   1:      Singlet-A      4.9998 eV  247.98 nm  f=0.0100  <S**2>=0.000
      20 -> 22         0.10823
      20 -> 23         0.37866
      21 -> 22         0.57437
      21 -> 23        -0.12064
 This state for optimization and/or second-order correction.
 Total Energy, E(TD-HF/TD-DFT) =  -232.020409512
 Copying the excited state density for this state as the 1-particle RhoCI density.

 The electronic state is 1-A.
 Alpha  occ. eigenvalues --  -10.20869 -10.20248 -10.20212 -10.20152 -10.19891
 Alpha  occ. eigenvalues --  -10.18735  -0.83701  -0.74173  -0.72802  -0.60383
 Alpha  occ. eigenvalues --   -0.58126  -0.51695  -0.45850  -0.43586  -0.42734
 Alpha  occ. eigenvalues --   -0.39868  -0.36531  -0.33490  -0.31400  -0.24742
 Alpha  occ. eigenvalues --   -0.23765
 Alpha virt. eigenvalues --   -0.01803  -0.00245   0.08355   0.11930   0.12973
 Alpha virt. eigenvalues --    0.15225   0.16536   0.16876   0.18814   0.26058
 Alpha virt. eigenvalues --    0.27787   0.30689   0.32254   0.44735   0.47191

 Mulliken charges:
               1
     1  C   -0.080331
     2  C   -0.091891
     3  C   -0.070089
     4  C   -0.098227
     5  C   -0.080012
     6  C   -0.103121
     7  H    0.088226
     8  H    0.089473
     9  H    0.103777
    10  H    0.056075
    11  H    0.102941
    12  H    0.083179
 Sum of Mulliken charges =  -0.00000

 Dipole moment (field-independent basis, Debye):
    X=              0.0082    Y=              0.1169    Z=              0.2924  Tot=              0.3150
 Quadrupole moment (field-independent basis, Debye-Ang):
   XX=            -31.3077   YY=            -32.3972   ZZ=            -38.7347
   XY=             -0.0245   XZ=              0.2476   YZ=             -0.0385

 Normal termination of Gaussian 16 at Fri Nov 10 21:35:36 2023.
