 Gaussian 16, Revision B.01,
 Gaussian 16:  EM64L-G16RevB.01 20-Dec-2017

 ---------------------------------
 # TD=(NStates=1) B3LYP/6-31G(d,p)
 ---------------------------------

 -------
 EMISPCT
 -------
 Symbolic Z-matrix:
 Charge =  0 Multiplicity = 1

                         Standard orientation:
 ---------------------------------------------------------------------
 Center     Atomic      Atomic             Coordinates (Angstroms)
 Number     Number       Type             X           Y           Z
 ---------------------------------------------------------------------
      1          6           0       -0.641398   -1.269606    0.100488
      2          6           0        0.755420   -1.114327   -0.121750
      3          6           0        1.438160    0.018903    0.069714
      4          6           0        0.710322    1.291906   -0.028524
      5          6           0       -0.808809    1.166739    0.006166
      6          6           0       -1.445960   -0.119428   -0.003105
      7          1           0       -1.096212   -2.183526   -0.050849
      8          1           0       -2.478550    0.010957    0.161969
      9          1           0       -1.531017    2.108319   -0.245102
     10          1           0        1.169717    2.132141   -0.078459
     11          1           0        2.493235    0.146160    0.382671
     12          1           0        1.396412   -2.059176   -0.308164
 ---------------------------------------------------------------------

 SCF Done:  E(RB3LYP) =  -232.182657913     A.U. after   13 cycles

 Excitation energies and oscillator strengths:

 Excited State   1:      Singlet-A      4.9223 eV  251.88 nm  f=0.0021  <S**2>=0.000
      20 -> 22         0.46568
      20 -> 23         0.15030
      21 -> 22         0.22673
      21 -> 23        -0.45671
 This state for optimization and/or second-order correction.
 Total Energy, E(TD-HF/TD-DFT) =  -232.001765807
 Copying the excited state density for this state as the 1-particle RhoCI density.

 The electronic state is 1-A.
 Alpha  occ. eigenvalues --  -10.21102 -10.19603 -10.19577 -10.19510 -10.19270
 Alpha  occ. eigenvalues --  -10.19165  -0.83665  -0.74519  -0.72445  -0.61605
 Alpha  occ. eigenvalues --   -0.57782  -0.51180  -0.47425  -0.43426  -0.42333
 Alpha  occ. eigenvalues --   -0.39564  -0.36436  -0.34528  -0.31443  -0.24655
 Alpha  occ. eigenvalues --   -0.23380
 Alpha virt. eigenvalues --   -0.02036  -0.00568   0.09118   0.10794   0.13626
 Alpha virt. eigenvalues --    0.15420   0.17200   0.17959   0.19019   0.26648
 Alpha virt. eigenvalues --    0.28269   0.29681   0.31940   0.45567   0.47786

 Mulliken charges:
               1
     1  C   -0.085077
     2  C   -0.090484
     3  C   -0.080198
     4  C   -0.076859
     5  C   -0.106042
     6  C   -0.078405
     7  H    0.092885
     8  H    0.094721
     9  H    0.073617
    10  H    0.079013
    11  H    0.098968
    12  H    0.077861
 Sum of Mulliken charges =  -0.00000

 Dipole moment (field-independent basis, Debye):
    X=              0.1367    Y=              0.0280    Z=             -0.0495  Tot=              0.1480
 Quadrupole moment (field-independent basis, Debye-Ang):
   XX=            -31.1374   YY=            -32.2405   ZZ=            -38.6245
   XY=              0.4067   XZ=              0.3866   YZ=              0.0844

 Normal termination of Gaussian 16 at Fri Nov 10 19:43:03 2023.
