 Gaussian 16, Revision B.01,
 Gaussian 16:  EM64L-G16RevB.01 20-Dec-2017

 ---------------------------------
 # TD=(NStates=1) B3LYP/6-31G(d,p)
 ---------------------------------

 -------
 EMISPCT
 -------
 Symbolic Z-matrix:
 Charge =  0 Multiplicity = 1

                         Standard orientation:
 ---------------------------------------------------------------------
 Center     Atomic      Atomic             Coordinates (Angstroms)
 Number     Number       Type             X           Y           Z
 ---------------------------------------------------------------------
      1          6           0       -0.426638   -1.293353   -0.027825
      2          6           0       -1.409909   -0.289308   -0.064177
      3          6           0       -0.929839    1.009166    0.013009
      4          6           0        0.460987    1.334851   -0.029647
      5          6           0        1.366163    0.269767    0.038367
      6          6           0        0.918120   -1.012657   -0.018982
      7          1           0       -0.529853   -2.374329    0.143171
      8          1           0        1.542491   -1.787202    0.165714
      9          1           0        2.455329    0.362244   -0.108711
     10          1           0        0.920963    2.347417    0.038914
     11          1           0       -1.746923    1.779967    0.165920
     12          1           0       -2.515315   -0.438895    0.130516
 ---------------------------------------------------------------------

 SCF Done:  E(RB3LYP) =  -232.227449778     A.U. after   13 cycles

 Excitation energies and oscillator strengths:

 Excited State   1:      Singlet-A      5.4672 eV  226.78 nm  f=0.0021  <S**2>=0.000
      20 -> 22         0.39046
      20 -> 23        -0.26189
      21 -> 22         0.34699
      21 -> 23         0.39762
 This state for optimization and/or second-order correction.
 Total Energy, E(TD-HF/TD-DFT) =  -232.026533116
 Copying the excited state density for this state as the 1-particle RhoCI density.

 The electronic state is 1-A.
 Alpha  occ. eigenvalues --  -10.19787 -10.19660 -10.19650 -10.18727 -10.18468
 Alpha  occ. eigenvalues --  -10.16947  -0.85151  -0.74817  -0.73737  -0.60389
 Alpha  occ. eigenvalues --   -0.59167  -0.51822  -0.45138  -0.44167  -0.41820
 Alpha  occ. eigenvalues --   -0.41036  -0.36429  -0.33660  -0.33152  -0.25256
 Alpha  occ. eigenvalues --   -0.24390
 Alpha virt. eigenvalues --   -0.00476   0.00361   0.08297   0.13459   0.13959
 Alpha virt. eigenvalues --    0.15152   0.16615   0.18075   0.21302   0.28917
 Alpha virt. eigenvalues --    0.30102   0.31895   0.32726   0.46328   0.49950

 Mulliken charges:
               1
     1  C   -0.084093
     2  C   -0.087218
     3  C   -0.096749
     4  C   -0.088968
     5  C   -0.087684
     6  C   -0.062714
     7  H    0.078974
     8  H    0.078412
     9  H    0.082743
    10  H    0.090731
    11  H    0.082676
    12  H    0.093890
 Sum of Mulliken charges =  -0.00000

 Dipole moment (field-independent basis, Debye):
    X=              0.0830    Y=             -0.0913    Z=              0.3241  Tot=              0.3468
 Quadrupole moment (field-independent basis, Debye-Ang):
   XX=            -31.4026   YY=            -32.2197   ZZ=            -38.4203
   XY=             -0.3783   XZ=             -0.5363   YZ=             -0.2914

 Normal termination of Gaussian 16 at Fri Nov 10 20:27:16 2023.
