 Gaussian 16, Revision B.01,
 Gaussian 16:  EM64L-G16RevB.01 20-Dec-2017

 ---------------------------------
 # TD=(NStates=1) B3LYP/6-31G(d,p)
 ---------------------------------

 -------
 EMISPCT
 -------
 Symbolic Z-matrix:
 Charge =  0 Multiplicity = 1

                         Standard orientation:
 ---------------------------------------------------------------------
 Center     Atomic      Atomic             Coordinates (Angstroms)
 Number     Number       Type             X           Y           Z
 ---------------------------------------------------------------------
      1          6           0       -1.142423    0.864025    0.036196
      2          6           0        0.196497    1.375962   -0.021662
      3          6           0        1.351684    0.535143   -0.032266
      4          6           0        1.102455   -0.900480   -0.066666
      5          6           0       -0.239973   -1.318288    0.063591
      6          6           0       -1.351488   -0.547262   -0.048402
      7          1           0       -1.872863    1.629349    0.128605
      8          1           0       -2.334501   -0.883610   -0.178195
      9          1           0       -0.175092   -2.458301    0.133622
     10          1           0        1.970921   -1.549946    0.167786
     11          1           0        2.388531    0.813403    0.057634
     12          1           0        0.522492    2.394507    0.105796
 ---------------------------------------------------------------------

 SCF Done:  E(RB3LYP) =  -232.221311643     A.U. after   13 cycles

 Excitation energies and oscillator strengths:

 Excited State   1:      Singlet-A      5.1837 eV  239.18 nm  f=0.0032  <S**2>=0.000
      20 -> 22         0.48971
      20 -> 23        -0.17789
      21 -> 22        -0.24648
      21 -> 23        -0.40894
 This state for optimization and/or second-order correction.
 Total Energy, E(TD-HF/TD-DFT) =  -232.030813520
 Copying the excited state density for this state as the 1-particle RhoCI density.

 The electronic state is 1-A.
 Alpha  occ. eigenvalues --  -10.19794 -10.19402 -10.19333 -10.19272 -10.19246
 Alpha  occ. eigenvalues --  -10.19233  -0.83891  -0.74052  -0.73207  -0.60414
 Alpha  occ. eigenvalues --   -0.59092  -0.51359  -0.46797  -0.43821  -0.41944
 Alpha  occ. eigenvalues --   -0.40238  -0.36095  -0.34518  -0.31609  -0.24581
 Alpha  occ. eigenvalues --   -0.24041
 Alpha virt. eigenvalues --   -0.01426   0.00248   0.09057   0.13552   0.14042
 Alpha virt. eigenvalues --    0.14950   0.17056   0.17437   0.19513   0.28082
 Alpha virt. eigenvalues --    0.29153   0.29644   0.31811   0.47047   0.50107

 Mulliken charges:
               1
     1  C   -0.098858
     2  C   -0.088442
     3  C   -0.090917
     4  C   -0.098070
     5  C   -0.080040
     6  C   -0.075000
     7  H    0.094499
     8  H    0.095771
     9  H    0.076602
    10  H    0.087986
    11  H    0.091252
    12  H    0.085218
 Sum of Mulliken charges =  -0.00000

 Dipole moment (field-independent basis, Debye):
    X=              0.0591    Y=              0.1053    Z=              0.2522  Tot=              0.2796
 Quadrupole moment (field-independent basis, Debye-Ang):
   XX=            -30.7718   YY=            -32.3768   ZZ=            -38.6968
   XY=             -0.2586   XZ=              0.6362   YZ=              0.1306

 Normal termination of Gaussian 16 at Fri Nov 10 20:05:24 2023.
