 Gaussian 16, Revision B.01,
 Gaussian 16:  EM64L-G16RevB.01 20-Dec-2017

 ---------------------------------
 # TD=(NStates=1) B3LYP/6-31G(d,p)
 ---------------------------------

 -------
 EMISPCT
 -------
 Symbolic Z-matrix:
 Charge =  0 Multiplicity = 1

                         Standard orientation:
 ---------------------------------------------------------------------
 Center     Atomic      Atomic             Coordinates (Angstroms)
 Number     Number       Type             X           Y           Z
 ---------------------------------------------------------------------
      1          6           0        0.690368    1.239512   -0.028768
      2          6           0       -0.845126    1.223176   -0.062861
      3          6           0       -1.450481   -0.011989    0.044092
      4          6           0       -0.643625   -1.205110   -0.017084
      5          6           0        0.757581   -1.246176   -0.013392
      6          6           0        1.461800    0.049121    0.025450
      7          1           0        1.251342    2.118018    0.208897
      8          1           0        2.581447    0.071159   -0.077557
      9          1           0        1.226842   -2.081949    0.009829
     10          1           0       -1.177000   -2.105970    0.113415
     11          1           0       -2.611639   -0.430440   -0.054404
     12          1           0       -1.094095    2.137972    0.115187
 ---------------------------------------------------------------------

 SCF Done:  E(RB3LYP) =  -232.176602660     A.U. after   13 cycles

 Excitation energies and oscillator strengths:

 Excited State   1:      Singlet-A      5.0699 eV  244.55 nm  f=0.0037  <S**2>=0.000
      20 -> 22         0.37897
      20 -> 23         0.25877
      21 -> 22        -0.35538
      21 -> 23         0.40345
 This state for optimization and/or second-order correction.
 Total Energy, E(TD-HF/TD-DFT) =  -231.990286322
 Copying the excited state density for this state as the 1-particle RhoCI density.

 The electronic state is 1-A.
 Alpha  occ. eigenvalues --  -10.21196 -10.20170 -10.19886 -10.19617 -10.18815
 Alpha  occ. eigenvalues --  -10.18571  -0.83006  -0.74081  -0.73098  -0.61703
 Alpha  occ. eigenvalues --   -0.58655  -0.51158  -0.48412  -0.43554  -0.41058
 Alpha  occ. eigenvalues --   -0.40224  -0.35433  -0.34474  -0.31858  -0.24932
 Alpha  occ. eigenvalues --   -0.23771
 Alpha virt. eigenvalues --   -0.01602  -0.00687   0.08021   0.11942   0.13662
 Alpha virt. eigenvalues --    0.15589   0.16828   0.19026   0.20084   0.25256
 Alpha virt. eigenvalues --    0.27570   0.30077   0.32102   0.47307   0.47761

 Mulliken charges:
               1
     1  C   -0.124797
     2  C   -0.075250
     3  C   -0.077525
     4  C   -0.087820
     5  C   -0.048560
     6  C   -0.094346
     7  H    0.093331
     8  H    0.089031
     9  H    0.073005
    10  H    0.082671
    11  H    0.081007
    12  H    0.089254
 Sum of Mulliken charges =  -0.00000

 Dipole moment (field-independent basis, Debye):
    X=              0.2188    Y=             -0.1564    Z=              0.2167  Tot=              0.3454
 Quadrupole moment (field-independent basis, Debye-Ang):
   XX=            -31.9300   YY=            -31.1312   ZZ=            -38.7978
   XY=              0.5143   XZ=             -0.0027   YZ=              0.4464

 Normal termination of Gaussian 16 at Fri Nov 10 22:53:46 2023.
