 Gaussian 16, Revision B.01,
 Gaussian 16:  EM64L-G16RevB.01 20-Dec-2017

 -----------------------
 #n B3LYP/6-31G(d,p) OPT
 -----------------------

 -
 5
 -
 Symbolic Z-matrix:
 Charge =  0 Multiplicity = 1

 SCF Done:  E(RB3LYP) =  -388.223575227     A.U. after   13 cycles
 SCF Done:  E(RB3LYP) =  -388.231674881     A.U. after   11 cycles
 SCF Done:  E(RB3LYP) =  -388.232131229     A.U. after   11 cycles
 SCF Done:  E(RB3LYP) =  -388.232152544     A.U. after    8 cycles
 SCF Done:  E(RB3LYP) =  -388.232153596     A.U. after    7 cycles
 Optimization completed.
    -- Stationary point found.

                         Standard orientation:
 ---------------------------------------------------------------------
 Center     Atomic      Atomic             Coordinates (Angstroms)
 Number     Number       Type             X           Y           Z
 ---------------------------------------------------------------------
      1          6           0       -5.544112    0.214710   -0.000000
      2          6           0       -4.350471   -0.402880    0.000000
      3          6           0       -3.074225    0.277950    0.000000
      4          6           0       -1.872983   -0.352709    0.000000
      5          6           0       -0.601025    0.317213    0.000000
      6          6           0        0.601024   -0.317200    0.000000
      7          6           0        1.872985    0.352719    0.000000
      8          6           0        3.074223   -0.277947    0.000000
      9          6           0        4.350474    0.402874    0.000000
     10          6           0        5.544110   -0.214726   -0.000000
     11          1           0       -6.474576   -0.342734   -0.000000
     12          1           0       -5.622088    1.298796   -0.000000
     13          1           0       -4.317624   -1.492443    0.000000
     14          1           0       -3.097439    1.367984    0.000000
     15          1           0       -1.855596   -1.443135    0.000000
     16          1           0       -0.616840    1.407470    0.000000
     17          1           0        0.616839   -1.407457    0.000000
     18          1           0        1.855602    1.443145    0.000000
     19          1           0        3.097431   -1.367980    0.000000
     20          1           0        4.317636    1.492438    0.000000
     21          1           0        5.622075   -1.298813   -0.000000
     22          1           0        6.474579    0.342709   -0.000000
 ---------------------------------------------------------------------

 The electronic state is 1-A.
 Alpha  occ. eigenvalues --  -10.19452 -10.19411 -10.19394 -10.19365 -10.19355
 Alpha  occ. eigenvalues --  -10.19354 -10.19276 -10.19276 -10.18410 -10.18410
 Alpha  occ. eigenvalues --   -0.82727  -0.80950  -0.78225  -0.74645  -0.70493
 Alpha  occ. eigenvalues --   -0.63569  -0.58444  -0.56405  -0.55090  -0.54668
 Alpha  occ. eigenvalues --   -0.48432  -0.47610  -0.44609  -0.44572  -0.40781
 Alpha  occ. eigenvalues --   -0.40445  -0.37795  -0.37721  -0.36059  -0.35006
 Alpha  occ. eigenvalues --   -0.35003  -0.34469  -0.32754  -0.29228  -0.24515
 Alpha  occ. eigenvalues --   -0.18930
 Alpha virt. eigenvalues --   -0.06738  -0.00310   0.05431   0.09006   0.09271
 Alpha virt. eigenvalues --    0.10741   0.11250   0.12601   0.12713   0.14134
 Alpha virt. eigenvalues --    0.15161   0.15278   0.16318   0.18240   0.19272

 Mulliken charges:
               1
     1  C   -0.255985
     2  C   -0.029642
     3  C   -0.076926
     4  C   -0.075630
     5  C   -0.077516
     6  C   -0.077517
     7  C   -0.075630
     8  C   -0.076926
     9  C   -0.029642
    10  C   -0.255985
    11  H    0.101544
    12  H    0.097247
    13  H    0.081452
    14  H    0.078411
    15  H    0.078493
    16  H    0.078553
    17  H    0.078553
    18  H    0.078493
    19  H    0.078411
    20  H    0.081452
    21  H    0.097247
    22  H    0.101544
 Sum of Mulliken charges =  -0.00000

 Dipole moment (field-independent basis, Debye):
    X=              0.0000    Y=              0.0000    Z=             -0.0000  Tot=              0.0000
 Quadrupole moment (field-independent basis, Debye-Ang):
   XX=            -55.9175   YY=            -54.2935   ZZ=            -66.4735
   XY=              0.1278   XZ=             -0.0000   YZ=             -0.0000

 Normal termination of Gaussian 16 at Tue Oct  3 11:52:57 2023.
